# OOMMF OVF 2.0
# Segment count: 1
# Begin: Segment
# Begin: Header
# Title: regions
# meshtype: rectangular
# meshunit: m
# xmin: 0
# ymin: 0
# zmin: 0
# xmax: 8e-08
# ymax: 8e-08
# zmax: 1e-09
# valuedim: 1
# valuelabels: regions
# valueunits: 1
# Desc: Total simulation time:  0  s
# xbase: 5e-10
# ybase: 5e-10
# zbase: 5e-10
# xnodes: 600
# ynodes: 1
# znodes: 1
# xstepsize: 1e-09
# ystepsize: 1e-09
# zstepsize: 1e-09
# End: Header
# Begin: Data Text
1.892860151436001726e+00
1.331979805301177322e+00
1.821229123057831689e+00
1.041696625725249792e+00
1.107656679935967947e+00
1.595052064206240239e+00
1.529817362192821495e+00
1.418807428556654315e+00
1.335407849273329228e+00
1.622519432196090072e+00
1.438141426108874077e+00
1.735882106348690224e+00
1.518036411999268864e+00
1.578858600226157094e+00
1.645355095895593811e+00
1.990224271373416398e+00
1.819858196921841476e+00
1.413200934816180698e+00
1.876267655206627527e+00
1.823759432570521311e+00
1.054474507822354745e+00
1.718637236564194204e+00
1.802170562424475264e+00
1.736406643811438943e+00
1.709131750781167192e+00
1.540936854302528136e+00
1.124824174380609776e+00
1.957647295469668425e+00
1.403256298734919749e+00
1.216951160323560099e+00
1.717275846453319321e+00
1.994207438421937706e+00
1.255614055600835055e+00
1.671309431939280277e+00
1.599005913139116553e+00
1.717332145555513057e+00
1.937349534644904558e+00
1.351809768539701917e+00
1.253634097471395981e+00
1.402472509036773118e+00
1.746510717184984962e+00
1.724070567411688293e+00
1.406107796058389425e+00
1.989379848280002250e+00
1.450499280745165986e+00
1.373808434100352915e+00
1.709628606169202092e+00
1.082458553311708371e+00
1.398372918811283228e+00
1.770880966307879723e+00
1.764750983500467107e+00
1.283859383557697242e+00
1.189542190370380670e+00
1.471250964735315137e+00
1.334806044502623523e+00
1.734735043713651059e+00
1.189107115534864256e+00
1.331104074121087777e+00
1.844228420822568992e+00
1.615024034322376068e+00
1.885264079737371645e+00
1.976553020407677996e+00
1.836908592907182669e+00
1.180824626085939411e+00
1.618410508454588337e+00
1.476108873273344280e+00
1.404156654672727988e+00
1.741883687549009130e+00
1.825933289169183737e+00
1.683229830487641632e+00
1.139271605490972394e+00
1.702825057398411168e+00
1.058837290164138079e+00
1.192665474751215982e+00
1.924793764955196274e+00
1.405102457363991642e+00
1.148291532600943299e+00
1.682287130674583686e+00
1.163488750764618551e+00
1.648225241066510582e+00
1.251614143170478144e+00
1.041375501300901618e+00
1.958722600315973672e+00
1.066220480813431681e+00
1.512940186085638405e+00
1.341296591219920842e+00
1.660009818645397761e+00
1.844427337118789367e+00
1.603866556707105762e+00
1.587213690975735281e+00
1.117033035534641838e+00
1.710450335442776915e+00
1.204523257845132811e+00
1.490367793257159512e+00
1.036608530436010867e+00
1.315403575588770968e+00
1.863030407099341978e+00
1.558466618224168876e+00
1.546707826276485509e+00
1.367824658934112314e+00
1.828156685098947243e+00
1.276350459432638917e+00
1.125658341666623929e+00
1.562781079492676195e+00
1.267339005373943728e+00
1.775034928306358228e+00
1.179406345539538936e+00
1.783256671337495547e+00
1.607996320834292669e+00
1.041748876153553383e+00
1.561275132191601411e+00
1.668137734826942165e+00
1.938392606666584417e+00
1.786005858811963165e+00
1.750430471520837417e+00
1.497050975834553377e+00
1.042732501652877675e+00
1.816867496445743413e+00
1.013623744191839204e+00
1.550041185715104852e+00
1.566796771325051241e+00
1.112918334787146524e+00
1.062776239831264125e+00
1.574724224967023911e+00
1.485485265790689624e+00
1.301422097135139788e+00
1.039795558046628488e+00
1.633894136474113079e+00
1.124335683200543556e+00
1.011605844415387256e+00
1.276666588678531333e+00
1.301545540094161346e+00
1.180317631503344344e+00
1.066977963081467085e+00
1.779233953526027090e+00
1.400748474228316276e+00
1.245814851306752846e+00
1.523772187856001104e+00
1.254985693893214904e+00
1.851908461804427253e+00
1.483503578090327846e+00
1.623149951136074964e+00
1.973072504879266109e+00
1.354747529541858952e+00
1.224645634220705492e+00
1.978713805626470812e+00
1.587074421000812752e+00
1.981681388737500660e+00
1.968666080315444100e+00
1.705103935721388186e+00
1.019385808980997732e+00
1.612830389452099000e+00
1.249559169039823114e+00
1.129435707254026422e+00
1.366261134903027141e+00
1.200093505114220083e+00
1.766481413675670353e+00
1.934181165082818232e+00
1.026402398058938958e+00
1.256063604307684711e+00
1.266198045194159461e+00
1.142327713400113520e+00
1.951499310829666989e+00
1.247611952589963380e+00
1.356186164841914454e+00
1.048939088065753644e+00
1.238130671210404987e+00
1.882824755562705121e+00
1.964433016107007379e+00
1.656027824114509439e+00
1.296861106830844657e+00
1.059335972698002504e+00
1.864436484932310956e+00
1.155140897420752433e+00
1.269548090016459518e+00
1.548204650710937713e+00
1.252277440044540224e+00
1.844678085634623432e+00
1.502214882546502039e+00
1.484689393237927479e+00
1.905258630913874818e+00
1.915268385742536772e+00
1.241627703805087135e+00
1.018766892231132148e+00
1.670289696174772409e+00
1.270563408386513160e+00
1.014306451540300857e+00
1.097130391370320535e+00
1.418837705418972472e+00
1.120548227017547083e+00
1.207088997548046994e+00
1.745055465786872873e+00
1.455687995562239490e+00
1.113509634587922070e+00
1.215323664971844853e+00
1.930243254167304467e+00
1.007894747940961677e+00
1.641871839423087120e+00
1.644662527642020144e+00
1.680251280376799494e+00
1.578153464426364172e+00
1.784528214671730950e+00
1.821847182249691111e+00
1.646829335341223111e+00
1.179639630840221720e+00
1.726273003604863465e+00
1.284712087762871935e+00
1.841476551541928464e+00
1.570167146057021013e+00
1.085267621867051613e+00
1.910952196354170241e+00
1.462455911204149750e+00
1.942903701256158078e+00
1.040492282104544364e+00
1.107454969599698025e+00
1.755719587707014639e+00
1.041777584228388509e+00
1.451563154844444092e+00
1.816085831960327468e+00
1.419197739151099480e+00
1.189959122455335638e+00
1.843410585474422270e+00
1.107246318641917249e+00
1.288018588435040801e+00
1.216968788402898349e+00
1.464267223350586011e+00
1.319590386955661554e+00
1.909094175653813785e+00
1.785627377764577695e+00
1.705750684556687435e+00
1.139903450340745916e+00
1.611821335162072710e+00
1.851495026982271863e+00
1.923768465143470330e+00
1.662210587091346836e+00
1.258979473768859547e+00
1.276799674557691056e+00
1.635477991859191960e+00
1.724406108857646114e+00
1.305587253972194883e+00
1.677962587993947485e+00
1.506493441860934812e+00
1.829385753132498849e+00
1.683298059298573346e+00
1.910101216454589190e+00
1.119939620690415971e+00
1.839733132975359009e+00
1.948269855705143216e+00
1.573620931912805165e+00
1.004145027377523647e+00
1.033512284121139491e+00
1.412466014191796848e+00
1.458277247064165616e+00
1.477651816985890765e+00
1.681420854470506931e+00
1.754891434557433350e+00
1.820784719728246959e+00
1.346309153492772914e+00
1.614950114959242455e+00
1.392867346381824856e+00
1.725345653584841266e+00
1.563472639807012898e+00
1.594778535795077890e+00
1.387736617313805265e+00
1.634460335952421239e+00
1.867792476435764737e+00
1.651693775843259715e+00
1.128594019762133138e+00
1.088738279594535507e+00
1.677466378122343116e+00
1.355594096187674236e+00
1.314726346445798111e+00
1.890053639923591655e+00
1.863915377596053746e+00
1.805662321709504248e+00
1.357323261662378044e+00
1.640781255527582694e+00
1.598832547360128586e+00
1.235542355846630969e+00
1.589696262556976381e+00
1.997006632465883058e+00
1.052474636996154178e+00
1.237520433886714066e+00
1.330986766924783904e+00
1.800934190238065113e+00
1.443679440645930567e+00
1.062723513054372848e+00
1.318256783765791251e+00
1.830519296570265020e+00
1.738447251879213784e+00
1.278834905055084903e+00
1.728600153005915185e+00
1.319693440042751575e+00
1.152541383028356625e+00
1.984878392856221918e+00
1.261630047400245758e+00
1.608627209339130282e+00
1.917584911364531131e+00
1.642990357909795751e+00
1.426779530277204833e+00
1.397215979962700860e+00
1.048906595367077088e+00
1.081246602680894231e+00
1.450680488220179143e+00
1.922319349962209767e+00
1.233369453036395891e+00
1.868859237143902341e+00
1.806227006502570953e+00
1.174154025482174513e+00
1.312377463844427883e+00
1.428397250214530123e+00
1.859273690212769115e+00
1.634155935790637226e+00
1.824794114923744770e+00
1.497052090301398408e+00
1.582460740241836916e+00
1.453912233852257652e+00
1.258271673150417547e+00
1.618336628259221532e+00
1.575417520936495119e+00
1.867413288131057669e+00
1.924576595429473791e+00
1.574152251715914108e+00
1.694082564792404710e+00
1.392196784963578571e+00
1.676440653439597250e+00
1.998212060664682266e+00
1.940382214851961162e+00
1.141237063344813674e+00
1.938168319480511270e+00
1.038657577468729443e+00
1.025184666744697104e+00
1.177798782147489121e+00
1.305047921927784849e+00
1.984747294451314037e+00
1.943461447830127753e+00
1.763955567913271683e+00
1.623090082386835942e+00
1.968883580039712866e+00
1.573016268852355681e+00
1.213219545835508173e+00
1.133453761942806226e+00
1.763759424463876790e+00
1.527318304575193242e+00
1.817394601219305184e+00
1.793851055815712137e+00
1.670177003757536749e+00
1.776758180850311009e+00
1.688144842108318944e+00
1.428764762442223279e+00
1.830144987937362577e+00
1.915890063841864333e+00
1.777441794102258443e+00
1.085849657505697508e+00
1.949679480774922702e+00
1.477125701010443493e+00
1.885490236719993717e+00
1.084955363836782816e+00
1.938232076137953896e+00
1.314856924839006291e+00
1.421061981808911856e+00
1.685338488291954651e+00
1.090814246959108891e+00
1.208015044785872405e+00
1.583011114275204356e+00
1.385251611845942143e+00
1.106399511199838592e+00
1.010084976149848046e+00
1.896140020384605496e+00
1.668025382190154948e+00
1.323931734638954083e+00
1.886066836001518698e+00
1.967222304551540457e+00
1.081541133329183335e+00
1.260480302261029806e+00
1.529671550574432271e+00
1.920648204029566042e+00
1.233056373955670360e+00
1.935350801154396505e+00
1.901127986830242644e+00
1.338206117004228757e+00
1.225235497191566658e+00
1.183356153960726687e+00
1.054977491286205993e+00
1.956079949409577967e+00
1.146811893675315108e+00
1.957773291794621340e+00
1.339127567794777596e+00
1.059312038573707815e+00
1.819231339205405806e+00
1.803402515990175647e+00
1.463324425731759915e+00
1.772354627364974622e+00
1.748819215970585095e+00
1.450692155113029624e+00
1.283371439489198629e+00
1.142489502606668150e+00
1.910083807703750303e+00
1.079105747622488121e+00
1.725660828289452109e+00
1.077682356150382548e+00
1.669955433583523607e+00
1.060293605415535190e+00
1.111253976699920987e+00
1.475342996940329332e+00
1.080957896184320699e+00
1.031953009971600776e+00
1.639617308226985593e+00
1.895174272541674476e+00
1.483232606517256524e+00
1.837660518540902732e+00
1.708987379977221499e+00
1.933029929577859019e+00
1.974355823160423684e+00
1.588156891126260906e+00
1.946075335755931945e+00
1.705345181638648455e+00
1.464674071459850291e+00
1.915025561221809891e+00
1.579595094395931376e+00
1.239199565007727211e+00
1.389500963117936028e+00
1.422115900896648633e+00
1.164060509375397512e+00
1.024999796961841625e+00
1.052611351073453827e+00
1.678366520117855920e+00
1.253875557016127740e+00
1.152054976891119686e+00
1.197583033538325958e+00
1.818283299728095770e+00
1.891761490596647999e+00
1.454319270565010092e+00
1.740842417106343021e+00
1.575031483824017808e+00
1.488515151108093182e+00
1.644399550348752292e+00
1.948308778065111824e+00
1.802443004904298096e+00
1.410428959349050881e+00
1.251409956928024592e+00
1.002623751928110263e+00
1.291278046937180068e+00
1.979203671331192016e+00
1.423884936771223853e+00
1.540083851606781185e+00
1.063669682585222986e+00
1.142210994594603957e+00
1.985594907500319195e+00
1.535727320539209906e+00
1.221159287432837859e+00
1.641937393122801625e+00
1.726848476185570691e+00
1.504113431546481472e+00
1.328827572844733851e+00
1.722198651936356573e+00
1.130201981382807030e+00
1.720493167434702375e+00
1.447746421911958681e+00
1.516566522002299244e+00
1.626805436758151702e+00
1.859593690153198420e+00
1.315277010372993161e+00
1.696115597261907304e+00
1.116586682203811964e+00
1.438565578434636727e+00
1.717177390918295909e+00
1.889922275704345900e+00
1.557153901049454614e+00
1.633382731919806430e+00
1.532240718119752376e+00
1.345759171709169255e+00
1.845768553530301670e+00
1.574253994685415936e+00
1.260949023937432578e+00
1.797111646360009196e+00
1.834510667604725587e+00
1.452885031557775264e+00
1.679614158875791130e+00
1.093267609631799919e+00
1.722570296398405976e+00
1.336474095035081522e+00
1.022542453607148349e+00
1.705114961022808018e+00
1.548249358803068798e+00
1.828268027454660771e+00
1.115216600935097668e+00
1.993207252969558363e+00
1.332520563951790082e+00
1.133946205453353340e+00
1.042374436259849269e+00
1.320854398587510081e+00
1.209888554678919315e+00
1.574320151585025140e+00
1.958387053191531280e+00
1.216797781753825136e+00
1.329122832377787500e+00
1.266116828870549993e+00
1.271062770458005975e+00
1.687093586988360094e+00
1.893225489016431506e+00
1.584251501014509067e+00
1.400676836475059250e+00
1.425751198365777128e+00
1.552986465351203549e+00
1.305469081096445771e+00
1.257693553928132424e+00
1.909918712384923722e+00
1.511504988231151980e+00
1.119586675423659639e+00
1.570585990063763315e+00
1.249964394148560753e+00
1.005395043445200809e+00
1.572102813251826881e+00
1.358199394886524747e+00
1.683282768881290359e+00
1.613994635961844226e+00
1.173716999027263119e+00
1.301359911525224788e+00
1.715869340296583223e+00
1.430685199661738460e+00
1.134722717837536754e+00
1.173955674841139274e+00
1.725676067763119992e+00
1.624452339656119015e+00
1.555405638476668351e+00
1.055783897626811907e+00
1.388481268067923491e+00
1.445733325805031555e+00
1.584347610994295774e+00
1.696087278943104071e+00
1.717885556801899583e+00
1.591991282932724516e+00
1.270722344222601663e+00
1.408308995604817815e+00
1.775637961193728298e+00
1.465577694869606651e+00
1.403931778710548750e+00
1.854530042092570330e+00
1.995096653062089942e+00
1.420176252739661305e+00
1.634193785373836638e+00
1.911295415200498837e+00
1.154470524353051974e+00
1.291191976166457867e+00
1.647260022741993346e+00
1.178370431635332949e+00
1.280103238381409714e+00
1.936202954194831571e+00
1.314892484628146896e+00
1.096058710726401486e+00
1.499330001145405822e+00
1.076019213115892548e+00
1.250978412615594504e+00
1.955171945534334377e+00
1.841527764404401468e+00
1.148730696679598040e+00
1.246198471490020943e+00
1.054759617326129106e+00
1.199837727826644329e+00
1.809021831396283586e+00
1.914897695531866173e+00
1.624971052245252068e+00
1.085460696253484514e+00
1.501296596904607039e+00
1.667473486648983094e+00
1.106563172259383609e+00
1.582215183133773184e+00
1.755634519922490089e+00
1.385617164235077414e+00
1.825622219405887758e+00
1.169772215883134070e+00
1.263900344902558093e+00
1.804958193146668943e+00
1.684541619973062732e+00
1.781997629159051577e+00
1.178644645465822816e+00
1.953408137801060818e+00
1.176953011983139952e+00
1.696943688325988742e+00
1.308538787977936657e+00
1.509158925485004632e+00
1.914494197305515844e+00
1.777752879984490164e+00
1.749031832885546311e+00
1.110839692835849712e+00
1.913228469191141645e+00
1.903077125342333309e+00
1.984115114801762836e+00
1.113014980445704349e+00
1.382802661218115237e+00
1.274961737779340520e+00
1.848709931695750708e+00
1.899141746194406455e+00
1.505192863989510244e+00
1.221282452255023188e+00
1.048251758266658396e+00
1.880964020000783776e+00
1.948414238820307176e+00
1.754676562202382106e+00
