# OOMMF OVF 2.0
# Segment count: 1
# Begin: Segment
# Begin: Header
# Title: regions
# meshtype: rectangular
# meshunit: m
# xmin: 0
# ymin: 0
# zmin: 0
# xmax: 8e-08
# ymax: 8e-08
# zmax: 1e-09
# valuedim: 1
# valuelabels: regions
# valueunits: 1
# Desc: Total simulation time:  0  s
# xbase: 5e-10
# ybase: 5e-10
# zbase: 5e-10
# xnodes: 6600
# ynodes: 1
# znodes: 1
# xstepsize: 1e-09
# ystepsize: 1e-09
# zstepsize: 1e-09
# End: Header
# Begin: Data Text
1.892860151436001726e+00
1.331979805301177322e+00
1.821229123057831689e+00
1.041696625725249792e+00
1.107656679935967947e+00
1.595052064206240239e+00
1.529817362192821495e+00
1.418807428556654315e+00
1.335407849273329228e+00
1.622519432196090072e+00
1.438141426108874077e+00
1.735882106348690224e+00
1.518036411999268864e+00
1.578858600226157094e+00
1.645355095895593811e+00
1.990224271373416398e+00
1.819858196921841476e+00
1.413200934816180698e+00
1.876267655206627527e+00
1.823759432570521311e+00
1.054474507822354745e+00
1.718637236564194204e+00
1.802170562424475264e+00
1.736406643811438943e+00
1.709131750781167192e+00
1.540936854302528136e+00
1.124824174380609776e+00
1.957647295469668425e+00
1.403256298734919749e+00
1.216951160323560099e+00
1.717275846453319321e+00
1.994207438421937706e+00
1.255614055600835055e+00
1.671309431939280277e+00
1.599005913139116553e+00
1.717332145555513057e+00
1.937349534644904558e+00
1.351809768539701917e+00
1.253634097471395981e+00
1.402472509036773118e+00
1.746510717184984962e+00
1.724070567411688293e+00
1.406107796058389425e+00
1.989379848280002250e+00
1.450499280745165986e+00
1.373808434100352915e+00
1.709628606169202092e+00
1.082458553311708371e+00
1.398372918811283228e+00
1.770880966307879723e+00
1.764750983500467107e+00
1.283859383557697242e+00
1.189542190370380670e+00
1.471250964735315137e+00
1.334806044502623523e+00
1.734735043713651059e+00
1.189107115534864256e+00
1.331104074121087777e+00
1.844228420822568992e+00
1.615024034322376068e+00
1.885264079737371645e+00
1.976553020407677996e+00
1.836908592907182669e+00
1.180824626085939411e+00
1.618410508454588337e+00
1.476108873273344280e+00
1.404156654672727988e+00
1.741883687549009130e+00
1.825933289169183737e+00
1.683229830487641632e+00
1.139271605490972394e+00
1.702825057398411168e+00
1.058837290164138079e+00
1.192665474751215982e+00
1.924793764955196274e+00
1.405102457363991642e+00
1.148291532600943299e+00
1.682287130674583686e+00
1.163488750764618551e+00
1.648225241066510582e+00
1.251614143170478144e+00
1.041375501300901618e+00
1.958722600315973672e+00
1.066220480813431681e+00
1.512940186085638405e+00
1.341296591219920842e+00
1.660009818645397761e+00
1.844427337118789367e+00
1.603866556707105762e+00
1.587213690975735281e+00
1.117033035534641838e+00
1.710450335442776915e+00
1.204523257845132811e+00
1.490367793257159512e+00
1.036608530436010867e+00
1.315403575588770968e+00
1.863030407099341978e+00
1.558466618224168876e+00
1.546707826276485509e+00
1.367824658934112314e+00
1.828156685098947243e+00
1.276350459432638917e+00
1.125658341666623929e+00
1.562781079492676195e+00
1.267339005373943728e+00
1.775034928306358228e+00
1.179406345539538936e+00
1.783256671337495547e+00
1.607996320834292669e+00
1.041748876153553383e+00
1.561275132191601411e+00
1.668137734826942165e+00
1.938392606666584417e+00
1.786005858811963165e+00
1.750430471520837417e+00
1.497050975834553377e+00
1.042732501652877675e+00
1.816867496445743413e+00
1.013623744191839204e+00
1.550041185715104852e+00
1.566796771325051241e+00
1.112918334787146524e+00
1.062776239831264125e+00
1.574724224967023911e+00
1.485485265790689624e+00
1.301422097135139788e+00
1.039795558046628488e+00
1.633894136474113079e+00
1.124335683200543556e+00
1.011605844415387256e+00
1.276666588678531333e+00
1.301545540094161346e+00
1.180317631503344344e+00
1.066977963081467085e+00
1.779233953526027090e+00
1.400748474228316276e+00
1.245814851306752846e+00
1.523772187856001104e+00
1.254985693893214904e+00
1.851908461804427253e+00
1.483503578090327846e+00
1.623149951136074964e+00
1.973072504879266109e+00
1.354747529541858952e+00
1.224645634220705492e+00
1.978713805626470812e+00
1.587074421000812752e+00
1.981681388737500660e+00
1.968666080315444100e+00
1.705103935721388186e+00
1.019385808980997732e+00
1.612830389452099000e+00
1.249559169039823114e+00
1.129435707254026422e+00
1.366261134903027141e+00
1.200093505114220083e+00
1.766481413675670353e+00
1.934181165082818232e+00
1.026402398058938958e+00
1.256063604307684711e+00
1.266198045194159461e+00
1.142327713400113520e+00
1.951499310829666989e+00
1.247611952589963380e+00
1.356186164841914454e+00
1.048939088065753644e+00
1.238130671210404987e+00
1.882824755562705121e+00
1.964433016107007379e+00
1.656027824114509439e+00
1.296861106830844657e+00
1.059335972698002504e+00
1.864436484932310956e+00
1.155140897420752433e+00
1.269548090016459518e+00
1.548204650710937713e+00
1.252277440044540224e+00
1.844678085634623432e+00
1.502214882546502039e+00
1.484689393237927479e+00
1.905258630913874818e+00
1.915268385742536772e+00
1.241627703805087135e+00
1.018766892231132148e+00
1.670289696174772409e+00
1.270563408386513160e+00
1.014306451540300857e+00
1.097130391370320535e+00
1.418837705418972472e+00
1.120548227017547083e+00
1.207088997548046994e+00
1.745055465786872873e+00
1.455687995562239490e+00
1.113509634587922070e+00
1.215323664971844853e+00
1.930243254167304467e+00
1.007894747940961677e+00
1.641871839423087120e+00
1.644662527642020144e+00
1.680251280376799494e+00
1.578153464426364172e+00
1.784528214671730950e+00
1.821847182249691111e+00
1.646829335341223111e+00
1.179639630840221720e+00
1.726273003604863465e+00
1.284712087762871935e+00
1.841476551541928464e+00
1.570167146057021013e+00
1.085267621867051613e+00
1.910952196354170241e+00
1.462455911204149750e+00
1.942903701256158078e+00
1.040492282104544364e+00
1.107454969599698025e+00
1.755719587707014639e+00
1.041777584228388509e+00
1.451563154844444092e+00
1.816085831960327468e+00
1.419197739151099480e+00
1.189959122455335638e+00
1.843410585474422270e+00
1.107246318641917249e+00
1.288018588435040801e+00
1.216968788402898349e+00
1.464267223350586011e+00
1.319590386955661554e+00
1.909094175653813785e+00
1.785627377764577695e+00
1.705750684556687435e+00
1.139903450340745916e+00
1.611821335162072710e+00
1.851495026982271863e+00
1.923768465143470330e+00
1.662210587091346836e+00
1.258979473768859547e+00
1.276799674557691056e+00
1.635477991859191960e+00
1.724406108857646114e+00
1.305587253972194883e+00
1.677962587993947485e+00
1.506493441860934812e+00
1.829385753132498849e+00
1.683298059298573346e+00
1.910101216454589190e+00
1.119939620690415971e+00
1.839733132975359009e+00
1.948269855705143216e+00
1.573620931912805165e+00
1.004145027377523647e+00
1.033512284121139491e+00
1.412466014191796848e+00
1.458277247064165616e+00
1.477651816985890765e+00
1.681420854470506931e+00
1.754891434557433350e+00
1.820784719728246959e+00
1.346309153492772914e+00
1.614950114959242455e+00
1.392867346381824856e+00
1.725345653584841266e+00
1.563472639807012898e+00
1.594778535795077890e+00
1.387736617313805265e+00
1.634460335952421239e+00
1.867792476435764737e+00
1.651693775843259715e+00
1.128594019762133138e+00
1.088738279594535507e+00
1.677466378122343116e+00
1.355594096187674236e+00
1.314726346445798111e+00
1.890053639923591655e+00
1.863915377596053746e+00
1.805662321709504248e+00
1.357323261662378044e+00
1.640781255527582694e+00
1.598832547360128586e+00
1.235542355846630969e+00
1.589696262556976381e+00
1.997006632465883058e+00
1.052474636996154178e+00
1.237520433886714066e+00
1.330986766924783904e+00
1.800934190238065113e+00
1.443679440645930567e+00
1.062723513054372848e+00
1.318256783765791251e+00
1.830519296570265020e+00
1.738447251879213784e+00
1.278834905055084903e+00
1.728600153005915185e+00
1.319693440042751575e+00
1.152541383028356625e+00
1.984878392856221918e+00
1.261630047400245758e+00
1.608627209339130282e+00
1.917584911364531131e+00
1.642990357909795751e+00
1.426779530277204833e+00
1.397215979962700860e+00
1.048906595367077088e+00
1.081246602680894231e+00
1.450680488220179143e+00
1.922319349962209767e+00
1.233369453036395891e+00
1.868859237143902341e+00
1.806227006502570953e+00
1.174154025482174513e+00
1.312377463844427883e+00
1.428397250214530123e+00
1.859273690212769115e+00
1.634155935790637226e+00
1.824794114923744770e+00
1.497052090301398408e+00
1.582460740241836916e+00
1.453912233852257652e+00
1.258271673150417547e+00
1.618336628259221532e+00
1.575417520936495119e+00
1.867413288131057669e+00
1.924576595429473791e+00
1.574152251715914108e+00
1.694082564792404710e+00
1.392196784963578571e+00
1.676440653439597250e+00
1.998212060664682266e+00
1.940382214851961162e+00
1.141237063344813674e+00
1.938168319480511270e+00
1.038657577468729443e+00
1.025184666744697104e+00
1.177798782147489121e+00
1.305047921927784849e+00
1.984747294451314037e+00
1.943461447830127753e+00
1.763955567913271683e+00
1.623090082386835942e+00
1.968883580039712866e+00
1.573016268852355681e+00
1.213219545835508173e+00
1.133453761942806226e+00
1.763759424463876790e+00
1.527318304575193242e+00
1.817394601219305184e+00
1.793851055815712137e+00
1.670177003757536749e+00
1.776758180850311009e+00
1.688144842108318944e+00
1.428764762442223279e+00
1.830144987937362577e+00
1.915890063841864333e+00
1.777441794102258443e+00
1.085849657505697508e+00
1.949679480774922702e+00
1.477125701010443493e+00
1.885490236719993717e+00
1.084955363836782816e+00
1.938232076137953896e+00
1.314856924839006291e+00
1.421061981808911856e+00
1.685338488291954651e+00
1.090814246959108891e+00
1.208015044785872405e+00
1.583011114275204356e+00
1.385251611845942143e+00
1.106399511199838592e+00
1.010084976149848046e+00
1.896140020384605496e+00
1.668025382190154948e+00
1.323931734638954083e+00
1.886066836001518698e+00
1.967222304551540457e+00
1.081541133329183335e+00
1.260480302261029806e+00
1.529671550574432271e+00
1.920648204029566042e+00
1.233056373955670360e+00
1.935350801154396505e+00
1.901127986830242644e+00
1.338206117004228757e+00
1.225235497191566658e+00
1.183356153960726687e+00
1.054977491286205993e+00
1.956079949409577967e+00
1.146811893675315108e+00
1.957773291794621340e+00
1.339127567794777596e+00
1.059312038573707815e+00
1.819231339205405806e+00
1.803402515990175647e+00
1.463324425731759915e+00
1.772354627364974622e+00
1.748819215970585095e+00
1.450692155113029624e+00
1.283371439489198629e+00
1.142489502606668150e+00
1.910083807703750303e+00
1.079105747622488121e+00
1.725660828289452109e+00
1.077682356150382548e+00
1.669955433583523607e+00
1.060293605415535190e+00
1.111253976699920987e+00
1.475342996940329332e+00
1.080957896184320699e+00
1.031953009971600776e+00
1.639617308226985593e+00
1.895174272541674476e+00
1.483232606517256524e+00
1.837660518540902732e+00
1.708987379977221499e+00
1.933029929577859019e+00
1.974355823160423684e+00
1.588156891126260906e+00
1.946075335755931945e+00
1.705345181638648455e+00
1.464674071459850291e+00
1.915025561221809891e+00
1.579595094395931376e+00
1.239199565007727211e+00
1.389500963117936028e+00
1.422115900896648633e+00
1.164060509375397512e+00
1.024999796961841625e+00
1.052611351073453827e+00
1.678366520117855920e+00
1.253875557016127740e+00
1.152054976891119686e+00
1.197583033538325958e+00
1.818283299728095770e+00
1.891761490596647999e+00
1.454319270565010092e+00
1.740842417106343021e+00
1.575031483824017808e+00
1.488515151108093182e+00
1.644399550348752292e+00
1.948308778065111824e+00
1.802443004904298096e+00
1.410428959349050881e+00
1.251409956928024592e+00
1.002623751928110263e+00
1.291278046937180068e+00
1.979203671331192016e+00
1.423884936771223853e+00
1.540083851606781185e+00
1.063669682585222986e+00
1.142210994594603957e+00
1.985594907500319195e+00
1.535727320539209906e+00
1.221159287432837859e+00
1.641937393122801625e+00
1.726848476185570691e+00
1.504113431546481472e+00
1.328827572844733851e+00
1.722198651936356573e+00
1.130201981382807030e+00
1.720493167434702375e+00
1.447746421911958681e+00
1.516566522002299244e+00
1.626805436758151702e+00
1.859593690153198420e+00
1.315277010372993161e+00
1.696115597261907304e+00
1.116586682203811964e+00
1.438565578434636727e+00
1.717177390918295909e+00
1.889922275704345900e+00
1.557153901049454614e+00
1.633382731919806430e+00
1.532240718119752376e+00
1.345759171709169255e+00
1.845768553530301670e+00
1.574253994685415936e+00
1.260949023937432578e+00
1.797111646360009196e+00
1.834510667604725587e+00
1.452885031557775264e+00
1.679614158875791130e+00
1.093267609631799919e+00
1.722570296398405976e+00
1.336474095035081522e+00
1.022542453607148349e+00
1.705114961022808018e+00
1.548249358803068798e+00
1.828268027454660771e+00
1.115216600935097668e+00
1.993207252969558363e+00
1.332520563951790082e+00
1.133946205453353340e+00
1.042374436259849269e+00
1.320854398587510081e+00
1.209888554678919315e+00
1.574320151585025140e+00
1.958387053191531280e+00
1.216797781753825136e+00
1.329122832377787500e+00
1.266116828870549993e+00
1.271062770458005975e+00
1.687093586988360094e+00
1.893225489016431506e+00
1.584251501014509067e+00
1.400676836475059250e+00
1.425751198365777128e+00
1.552986465351203549e+00
1.305469081096445771e+00
1.257693553928132424e+00
1.909918712384923722e+00
1.511504988231151980e+00
1.119586675423659639e+00
1.570585990063763315e+00
1.249964394148560753e+00
1.005395043445200809e+00
1.572102813251826881e+00
1.358199394886524747e+00
1.683282768881290359e+00
1.613994635961844226e+00
1.173716999027263119e+00
1.301359911525224788e+00
1.715869340296583223e+00
1.430685199661738460e+00
1.134722717837536754e+00
1.173955674841139274e+00
1.725676067763119992e+00
1.624452339656119015e+00
1.555405638476668351e+00
1.055783897626811907e+00
1.388481268067923491e+00
1.445733325805031555e+00
1.584347610994295774e+00
1.696087278943104071e+00
1.717885556801899583e+00
1.591991282932724516e+00
1.270722344222601663e+00
1.408308995604817815e+00
1.775637961193728298e+00
1.465577694869606651e+00
1.403931778710548750e+00
1.854530042092570330e+00
1.995096653062089942e+00
1.420176252739661305e+00
1.634193785373836638e+00
1.911295415200498837e+00
1.154470524353051974e+00
1.291191976166457867e+00
1.647260022741993346e+00
1.178370431635332949e+00
1.280103238381409714e+00
1.936202954194831571e+00
1.314892484628146896e+00
1.096058710726401486e+00
1.499330001145405822e+00
1.076019213115892548e+00
1.250978412615594504e+00
1.955171945534334377e+00
1.841527764404401468e+00
1.148730696679598040e+00
1.246198471490020943e+00
1.054759617326129106e+00
1.199837727826644329e+00
1.809021831396283586e+00
1.914897695531866173e+00
1.624971052245252068e+00
1.085460696253484514e+00
1.501296596904607039e+00
1.667473486648983094e+00
1.106563172259383609e+00
1.582215183133773184e+00
1.755634519922490089e+00
1.385617164235077414e+00
1.825622219405887758e+00
1.169772215883134070e+00
1.263900344902558093e+00
1.804958193146668943e+00
1.684541619973062732e+00
1.781997629159051577e+00
1.178644645465822816e+00
1.953408137801060818e+00
1.176953011983139952e+00
1.696943688325988742e+00
1.308538787977936657e+00
1.509158925485004632e+00
1.914494197305515844e+00
1.777752879984490164e+00
1.749031832885546311e+00
1.110839692835849712e+00
1.913228469191141645e+00
1.903077125342333309e+00
1.984115114801762836e+00
1.113014980445704349e+00
1.382802661218115237e+00
1.274961737779340520e+00
1.848709931695750708e+00
1.899141746194406455e+00
1.505192863989510244e+00
1.221282452255023188e+00
1.048251758266658396e+00
1.880964020000783776e+00
1.948414238820307176e+00
1.754676562202382106e+00
1.823984062253382277e+00
1.311001751749705901e+00
1.128990613820222144e+00
1.100821447705375711e+00
1.671972385332981759e+00
1.141875427615337335e+00
1.923036338563545167e+00
1.244910669510691514e+00
1.748065418962199136e+00
1.611042958432034933e+00
1.344883735190012697e+00
1.631230499271422163e+00
1.017932739801669539e+00
1.764457472625074574e+00
1.171972593717223843e+00
1.612406506151593977e+00
1.117606789875790874e+00
1.570396089369803461e+00
1.733655923647783537e+00
1.796582390219970904e+00
1.136259024892507519e+00
1.476841685221820688e+00
1.411036734173343854e+00
1.399088558327824305e+00
1.830664917161248351e+00
1.187714808538058886e+00
1.761516850663531697e+00
1.735794842642798930e+00
1.422432930540361795e+00
1.137046365350832700e+00
1.704481721695645824e+00
1.875048268961764464e+00
1.175864096829029481e+00
1.117561704846792292e+00
1.210604229946277588e+00
1.443477985179385303e+00
1.460474840209607494e+00
1.756932885134753430e+00
1.164231931120518038e+00
1.899560320437389649e+00
1.521694929789827455e+00
1.279401537984671267e+00
1.022760486982410288e+00
1.585915787780393327e+00
1.201889587768737444e+00
1.441531772719801818e+00
1.960778688792554680e+00
1.202417099321216654e+00
1.413745834009659141e+00
1.843741751839633736e+00
1.027215571723698373e+00
1.671088324859992369e+00
1.465614170445779685e+00
1.342809339604119412e+00
1.499979268629162199e+00
1.432117352267304522e+00
1.557572097914146081e+00
1.108103330851486934e+00
1.355030814766581715e+00
1.929865511028618474e+00
1.503881309682218559e+00
1.641476613937262297e+00
1.470631481438262167e+00
1.967914628181360648e+00
1.116395428672324330e+00
1.350574083325490893e+00
1.680208131043323894e+00
1.785429942370881706e+00
1.397702509168193608e+00
1.740768888535305869e+00
1.372676083104593214e+00
1.097599340386010702e+00
1.016971966820324313e+00
1.141683569151683120e+00
1.987073415899484274e+00
1.192038332883473384e+00
1.008002420417221767e+00
1.568445686247833315e+00
1.482297289221182979e+00
1.297910361276461533e+00
1.930608161560015024e+00
1.701807463086286276e+00
1.414214900601834302e+00
1.023678368269413053e+00
1.690733915703976464e+00
1.672948097112309185e+00
1.337545402255229554e+00
1.972322443072317411e+00
1.921177695962164256e+00
1.502531556474726360e+00
1.846579928235670742e+00
1.852019284680474609e+00
1.369203544705147380e+00
1.992999005314070260e+00
1.389325394003850134e+00
1.760673717573314701e+00
1.455833960178799069e+00
1.114743066773496771e+00
1.560316874624532613e+00
1.707092759703805918e+00
1.611942778425823786e+00
1.298864076698134973e+00
1.888257952741156931e+00
1.792896506106719468e+00
1.399318610116963901e+00
1.275287543351188768e+00
1.820883324574087414e+00
1.268617953731058456e+00
1.260352196795720303e+00
1.268033415797677144e+00
1.606330379727935131e+00
1.274650591492869856e+00
1.858328122042181452e+00
1.283645173500000958e+00
1.946884365849244070e+00
1.391504441744970677e+00
1.714737869679301419e+00
1.176034474874954494e+00
1.175751345491047317e+00
1.262178953279806226e+00
1.284525251560045156e+00
1.667217770872694738e+00
1.957066645059761356e+00
1.661519171152162633e+00
1.623339711425837439e+00
1.976264709923669649e+00
1.311533108119250057e+00
1.796336547215764856e+00
1.619666476221509832e+00
1.623391020290838149e+00
1.392767207417725306e+00
1.977439546001694026e+00
1.316107318146539029e+00
1.266937682964355716e+00
1.618739908158281615e+00
1.074837182140044423e+00
1.397141741441688678e+00
1.605628606341250597e+00
1.575568400156795335e+00
1.891644134597495031e+00
1.897809086332113759e+00
1.052071510601157112e+00
1.719334554442908169e+00
1.926283128735048367e+00
1.297343605188311821e+00
1.111925652685236354e+00
1.852950460302916103e+00
1.533472968057389307e+00
1.801829384399810108e+00
1.447519005962486505e+00
1.908539649010453143e+00
1.907159316422663675e+00
1.439824127895343864e+00
1.848778558422091489e+00
1.807680667822046061e+00
1.595554221646196424e+00
1.325671566010514280e+00
1.244793397458977324e+00
1.738430206544504752e+00
1.756782947159848618e+00
1.020038351850295122e+00
1.752905394540146933e+00
1.205835535783902124e+00
1.291786191726674637e+00
1.784481093877253288e+00
1.619620584882710546e+00
1.908166758390797302e+00
1.917161923159624193e+00
1.153386674551780011e+00
1.322074561762509814e+00
1.680328657998063413e+00
1.745438318881759487e+00
1.327874771161713374e+00
1.266374829272961078e+00
1.812147154606579935e+00
1.000034341999707754e+00
1.870991439481510810e+00
1.400917496030118059e+00
1.499146813956285573e+00
1.936738185955175995e+00
1.538592455663735148e+00
1.470604726647941396e+00
1.698861833154994061e+00
1.408337832255139199e+00
1.588128106517968874e+00
1.737244081901012649e+00
1.134689585477624441e+00
1.690026723743810688e+00
1.314523323723642001e+00
1.274227105986356134e+00
1.464712828861835181e+00
1.198338132981761950e+00
1.927972169840489247e+00
1.922078306240577295e+00
1.639814740897785228e+00
1.360039352034392968e+00
1.481766357243529786e+00
1.518514744323247623e+00
1.064173832713861234e+00
1.188601220033272732e+00
1.613096013975542142e+00
1.242445785890209153e+00
1.098323104521071070e+00
1.762074000667790630e+00
1.140676520098052649e+00
1.076725351286439203e+00
1.932117983520157178e+00
1.295062195303003039e+00
1.822555964684132945e+00
1.223042287622559288e+00
1.659296432906713470e+00
1.657001288029085195e+00
1.853001380951586174e+00
1.093339327411528838e+00
1.532508346727724735e+00
1.710053532726934389e+00
1.279238179747786752e+00
1.563586079393711303e+00
1.117765973675447722e+00
1.410822024878280789e+00
1.620697616511922456e+00
1.575777999973803079e+00
1.160999833310669249e+00
1.185418635726254832e+00
1.422157450654577771e+00
1.045712600538439618e+00
1.932866918639177367e+00
1.054970175818777278e+00
1.799926685242555280e+00
1.976895799344741800e+00
1.743673305666747719e+00
1.262158349448673444e+00
1.753797280406130810e+00
1.452181917321432092e+00
1.331037355776964581e+00
1.872851011457252746e+00
1.806394702744742675e+00
1.283776176203280439e+00
1.276180854172212609e+00
1.445306320400116418e+00
1.115114549414549128e+00
1.374530441260932490e+00
1.493575895717780933e+00
1.677895649241100573e+00
1.067458320528256177e+00
1.160433836165462695e+00
1.379323358438907521e+00
1.469273827416793798e+00
1.958449984896537766e+00
1.891341615335646598e+00
1.629659330648098425e+00
1.808041282454754484e+00
1.017464837092391328e+00
1.407611941576794923e+00
1.926716424051034604e+00
1.586251449707635874e+00
1.053573034037489364e+00
1.630532928325861608e+00
1.359624704436444897e+00
1.511208438194133752e+00
1.258741856253155600e+00
1.139051051021546357e+00
1.364256620845655910e+00
1.097748733485326866e+00
1.386429751396355714e+00
1.928304263653006778e+00
1.550033183020056882e+00
1.217212324815190705e+00
1.739200361503070003e+00
1.735372950777855028e+00
1.797809414070968836e+00
1.681110722303136740e+00
1.978976967451330893e+00
1.176378811803424629e+00
1.415390407980512411e+00
1.495934934505321223e+00
1.203335398427893166e+00
1.383044696841732257e+00
1.942348707733265734e+00
1.582400102020579125e+00
1.791919887656246990e+00
1.282614666087325439e+00
1.621271875538921936e+00
1.227201805098597553e+00
1.217655705456628379e+00
1.968652836002322104e+00
1.296370203266425047e+00
1.225845659018073075e+00
1.280041339776102793e+00
1.027179725688313505e+00
1.567641590159635889e+00
1.163329086389897515e+00
1.407469317340365622e+00
1.737885599001510961e+00
1.863079138294128301e+00
1.228167336905890528e+00
1.514505646122406901e+00
1.080335145488627191e+00
1.126612476936649898e+00
1.382404500602909092e+00
1.654864314182571183e+00
1.301811996493832613e+00
1.084963784873915316e+00
1.434693031448814438e+00
1.506006113119756629e+00
1.878706036726018658e+00
1.319602484065053094e+00
1.320060095856015803e+00
1.063933140087617080e+00
1.406117736868671031e+00
1.183892751572563462e+00
1.581531624469217467e+00
1.452157429955516221e+00
1.213505380482006846e+00
1.016811612525419628e+00
1.991589495709986002e+00
1.976296038037415048e+00
1.120726899606331983e+00
1.876639731165663516e+00
1.988507904720699493e+00
1.250906064321308131e+00
1.838645911893450391e+00
1.522114723682807647e+00
1.525089265119181636e+00
1.088455619108628314e+00
1.454122665188427810e+00
1.991297988829368037e+00
1.132883088665430193e+00
1.857299122512781064e+00
1.882060241280097523e+00
1.085622370362628430e+00
1.716524053141422979e+00
1.011041130280300404e+00
1.366383150824075798e+00
1.873788340099420857e+00
1.884618540398609987e+00
1.973672610170498665e+00
1.457400271494434296e+00
1.281684983865063909e+00
1.508569483982276971e+00
1.433413569572629331e+00
1.664536999116962956e+00
1.936529326832915343e+00
1.448682258948318591e+00
1.880285557493839299e+00
1.812394244813196664e+00
1.190978122374821924e+00
1.660816426202569973e+00
1.846970633251289851e+00
1.652658740834716200e+00
1.832908120534346486e+00
1.458741684653828585e+00
1.474384252151582642e+00
1.760086656591989041e+00
1.607872764842417812e+00
1.867174760334389116e+00
1.438081313525481519e+00
1.839741283415629480e+00
1.636048220612629223e+00
1.303582257503129060e+00
1.716577528891420901e+00
1.852875213211985228e+00
1.289846063863970826e+00
1.172556631630564894e+00
1.591505142562315012e+00
1.972202605619068017e+00
1.428705289107109477e+00
1.081394854094678504e+00
1.175146420100291245e+00
1.741160458974761571e+00
1.074053781348182302e+00
1.407400566075452053e+00
1.442468174750803911e+00
1.910608429491690297e+00
1.055290032546729595e+00
1.031949519850293040e+00
1.905212227757461019e+00
1.470812208192745274e+00
1.140382452456853546e+00
1.776435474333360354e+00
1.313355620921076383e+00
1.636945317102334929e+00
1.577689972457753331e+00
1.183380932665537788e+00
1.857669427018231456e+00
1.424824049769136902e+00
1.749420872372894564e+00
1.927171631306004773e+00
1.316954842055986452e+00
1.817682631882526989e+00
1.612639059061425240e+00
1.254348179813789876e+00
1.700108438580124837e+00
1.129412036913124417e+00
1.408521754917903879e+00
1.096301576073835271e+00
1.151639039030124323e+00
1.303941485455118565e+00
1.732844606827043332e+00
1.135120035712167352e+00
1.950365792105658969e+00
1.383931508556502266e+00
1.267429669375123247e+00
1.233803369294722785e+00
1.334782136671944119e+00
1.290315204667348725e+00
1.115806200212807520e+00
1.194076268901349325e+00
1.869365237877351316e+00
1.637984526396639051e+00
1.257744458079488536e+00
1.897049906924177742e+00
1.705113721338477717e+00
1.364755940156758829e+00
1.981994647844139923e+00
1.261784309179150521e+00
1.433038460555069893e+00
1.510909287705985315e+00
1.912458533968320440e+00
1.546666733097688873e+00
1.748349179279323096e+00
1.118557051983835038e+00
1.867463635885777240e+00
1.971479121593898487e+00
1.888217708808262341e+00
1.207725000072913168e+00
1.938031215283578135e+00
1.314379993758687526e+00
1.053597204036377466e+00
1.053798573762134705e+00
1.974581772045302053e+00
1.451094073616370217e+00
1.918593279247663208e+00
1.036480355698187639e+00
1.757867257890670221e+00
1.136950452446336968e+00
1.307167373350002659e+00
1.448707976833112809e+00
1.831406086107207454e+00
1.873660274676009596e+00
1.714699617651254338e+00
1.324180926116195423e+00
1.823909979885464328e+00
1.213973190021349513e+00
1.585409713853072500e+00
1.029499923385345683e+00
1.878474563447155354e+00
1.636201682568825699e+00
1.242570980473250986e+00
1.356132982270561005e+00
1.495515876881672979e+00
1.790769767006882507e+00
1.487325995391592492e+00
1.660909356824760597e+00
1.007164036001089613e+00
1.269684924846145258e+00
1.685214198710460298e+00
1.995670440817429503e+00
1.549701126788635808e+00
1.226397869790725181e+00
1.664090973315263344e+00
1.910164591884345953e+00
1.777634113258849791e+00
1.131336635443925376e+00
1.349127549065838316e+00
1.364800539776412469e+00
1.934500473479431548e+00
1.385220174125246118e+00
1.513010632779295594e+00
1.364502487800340003e+00
1.981837099932011181e+00
1.192207695842122384e+00
1.148540176732402607e+00
1.344226510223701876e+00
1.066475902066978509e+00
1.742016587219901602e+00
1.072798901771608193e+00
1.808171484437541388e+00
1.954434772665836650e+00
1.520714055258471920e+00
1.845900627459059695e+00
1.641554548597897289e+00
1.295628404150423574e+00
1.796540816784543360e+00
1.964425523615029423e+00
1.889671987519177421e+00
1.327165117335155298e+00
1.491734351439142792e+00
1.038954542240805079e+00
1.700168476951514851e+00
1.260279666985495872e+00
1.407550217517612001e+00
1.352369714100293274e+00
1.095945527827999033e+00
1.105134036389508356e+00
1.720679572373581490e+00
1.497701391577612284e+00
1.653809951583001148e+00
1.595190431236814144e+00
1.412862698599169242e+00
1.126555156737357732e+00
1.215093092252742313e+00
1.212055659575419719e+00
1.780654831004414351e+00
1.848076102614863547e+00
1.977635927521522730e+00
1.614578101090522688e+00
1.585069059584557127e+00
1.541798717699553123e+00
1.829412363465855229e+00
1.842444055917262347e+00
1.258084082323281727e+00
1.142586389739417063e+00
1.944825351175075046e+00
1.677720805729900011e+00
1.834036257852319274e+00
1.792111545593130462e+00
1.560429214300551148e+00
1.011424083197150381e+00
1.321615962035532998e+00
1.128806932897469917e+00
1.524929693301542155e+00
1.586636382166297210e+00
1.197426112140727694e+00
1.519410760888733058e+00
1.768924087432220960e+00
1.070618406892587249e+00
1.344184110571753354e+00
1.325547648867458239e+00
1.644197284666278680e+00
1.737262513859636925e+00
1.390722065885583447e+00
1.899211415695187144e+00
1.809669240638123400e+00
1.105152277591711973e+00
1.058117113011603383e+00
1.398427045277671033e+00
1.017097322794396685e+00
1.637713962679243851e+00
1.653019751854833075e+00
1.795986199018937857e+00
1.591051052449978798e+00
1.425387706368309804e+00
1.357763622554894134e+00
1.289363518213748172e+00
1.031361481751974951e+00
1.106373507156191760e+00
1.526817904179985863e+00
1.202928505776643009e+00
1.276985701452141075e+00
1.075501716844739164e+00
1.567205374270744578e+00
1.524501784332982446e+00
1.889206976429128826e+00
1.357504074015519757e+00
1.625583704488606562e+00
1.491490461006900414e+00
1.316656581889706468e+00
1.940923207616756629e+00
1.474953278853345484e+00
1.265184121286525354e+00
1.826844374197593046e+00
1.086633545117334565e+00
1.191582019458834241e+00
1.916892564163963586e+00
1.181227039128456502e+00
1.413424573642156901e+00
1.863101698587374955e+00
1.871802267459992564e+00
1.374392605252551913e+00
1.578565532320362230e+00
1.925145811537327667e+00
1.677497861340251362e+00
1.509851158123018511e+00
1.601964498759323341e+00
1.015363340217608989e+00
1.056680193173731297e+00
1.590541323394492501e+00
1.631598795204542096e+00
1.603196184162120508e+00
1.303974499817396770e+00