# t (s)	mx ()	my ()	mz ()	Ku1.region100 (J/m3)	Dind.region100 (J/m2)
1e-09	1.1981596e-09	2.9119827e-09	0.9671613	839999.94	0.0025999998
1.0050187031811103e-09	-2.79065e-09	1.4559913e-09	0.9694505	839999.94	0.0025999998
1.01000639827579e-09	-4.549973e-10	-2.183987e-09	0.9717675	839999.94	0.0025999998
1.0150206961117485e-09	3.7309777e-09	2.4266522e-10	0.97425824	839999.94	0.0025999998
1.0200060890854785e-09	-1.4863245e-09	1.6986565e-09	0.9776891	840000.06	0.0025999998
1.025017205988529e-09	-2.2674032e-09	-1.3346587e-09	0.9790768	839999.94	0.0026
1.0300010310672493e-09	1.6076571e-09	-2.183987e-09	0.97879976	839999.94	0.0025999998
1.03500908286509e-09	7.810787e-10	4.1253085e-09	0.97764134	839999.94	0.0025999998
1.0400189464618923e-09	-4.0343093e-09	2.4266522e-10	0.97567075	839999.94	0.0026
1.0450054448007665e-09	1.8806554e-09	-3.8826435e-09	0.9718527	839999.94	0.0025999998
1.0500207362449522e-09	4.47414e-09	3.8826435e-09	0.96962327	839999.94	0.0025999998
1.0550108970108426e-09	-5.186969e-09	3.6399783e-09	0.96917385	839999.94	0.0025999998
1.0600025691764087e-09	-4.239058e-09	-6.3092958e-09	0.9687975	839999.94	0.0025999998
1.0650164779701717e-09	7.2496236e-09	-9.706609e-10	0.97154516	839999.94	0.0025999998
1.0700020996587643e-09	-1.5166576e-09	7.522622e-09	0.97461605	839999.94	0.0025999998
1.0750136373131779e-09	-5.763299e-09	-4.1253085e-09	0.9765179	839999.94	0.0025999998
1.0800196788831422e-09	5.368968e-09	-4.1253085e-09	0.9783413	840000.06	0.0025999998
1.0850252831433165e-09	2.8171916e-09	5.7026326e-09	0.9788243	840000.06	0.0025999998
1.0900064537671914e-09	-7.583288e-09	1.4559913e-09	0.97737575	839999.94	0.0025999998
1.0950168734075705e-09	5.4599675e-10	-7.522622e-09	0.9750264	840000.06	0.0025999998
1.100006363882582e-09	7.037291e-09	4.610639e-09	0.97296625	839999.94	0.0025999998
1.105024410708734e-09	-8.432616e-09	7.765287e-09	0.97016406	839999.94	0.0025999998
1.1100184162002808e-09	-4.686472e-09	-1.067727e-08	0.9689334	840000.06	0.0025999998
1.1150080668990818e-09	1.2133261e-08	0	0.97015154	839999.94	0.0025999998
1.1200221351313901e-09	-3.0939815e-09	1.0919935e-08	0.9713737	840000.06	0.0025999998
1.1250078495787766e-09	-9.676276e-09	-6.0666303e-09	0.97393566	839999.94	0.0025999998
1.1300152314393375e-09	8.129285e-09	-6.3092958e-09	0.97672826	839999.94	0.0025999998
1.1350211358008532e-09	2.972649e-09	9.463943e-09	0.9777926	840000.06	0.0025999998
1.1400250930544356e-09	-1.1731347e-08	4.8533044e-10	0.97797525	839999.94	0.0025999998
1.1450073012171472e-09	2.9423157e-09	-1.067727e-08	0.97733086	839999.94	0.0025999998
1.1500195923220188e-09	7.522622e-09	6.794626e-09	0.9752199	840000.06	0.0025999998
1.155011125728035e-09	-9.858274e-09	4.367974e-09	0.9724934	840000.06	0.0025999998
1.1600050951880082e-09	4.0191428e-10	-9.221278e-09	0.9709222	839999.94	0.0025999998
1.1650234707005628e-09	9.069613e-09	1.9413218e-09	0.9697903	840000.06	0.0025999998
1.1700138798170133e-09	-2.5479847e-09	9.221278e-09	0.9698132	840000.06	0.0025999998
1.175025297952915e-09	-7.765287e-09	-2.9119827e-09	0.9720604	840000.06	0.0025999998
1.1800104638668263e-09	3.5489789e-09	-4.8533044e-09	0.9740969	839999.94	0.0025999998
1.1850179734476445e-09	2.1688205e-09	6.0666303e-09	0.9759537	839999.94	0.0025999998
1.1900218641459295e-09	-5.2779687e-09	4.8533044e-10	0.97767305	839999.94	0.0025999998
1.1950019722534865e-09	-5.763299e-10	-3.6399783e-09	0.9777543	840000.06	0.0025999998
1.200010934228217e-09	3.4883125e-09	-7.2799566e-10	0.97663045	839999.94	0.0025999998
1.2050248763963526e-09	3.9433098e-10	2.9119827e-09	0.97506696	840000.06	0.0025999998
1.2100169628824062e-09	-3.4579795e-09	2.4266522e-10	0.9729839	839999.94	0.0026
1.2150109461582238e-09	2.183987e-09	-3.397313e-09	0.97078717	839999.94	0.0025999998
1.2200027807317311e-09	2.684484e-09	2.9119827e-09	0.9701799	839999.94	0.0025999998
1.2250164781782846e-09	-2.0626543e-09	9.706609e-10	0.97074836	839999.94	0.0025999998
1.2300035599675638e-09	-2.21432e-09	-1.2133261e-09	0.9718144	839999.94	0.0026
1.2350126019500544e-09	6.5216277e-10	-1.2133261e-09	0.9742087	839999.94	0.0025999998
1.2400192917572004e-09	2.4873186e-09	2.9119827e-09	0.9761464	840000.06	0.0025999998
1.245024672300794e-09	-4.42864e-09	7.2799566e-10	0.9769792	840000.06	0.0025999998
1.2500056131314763e-09	-5.6116334e-10	-2.79065e-09	0.9773716	839999.94	0.0025999998
1.255016125215238e-09	2.5631515e-09	2.4266522e-09	0.97655964	840000.06	0.0025999998
1.2600051458942212e-09	-2.0019881e-09	4.8533044e-10	0.97469866	839999.94	0.0025999998
1.2650229544988843e-09	-6.0666305e-11	-4.1253085e-09	0.9727959	840000.06	0.0025999998
1.2700154765557563e-09	2.9119827e-09	0	0.9713965	839999.94	0.0025999998
1.2750064218322852e-09	-3.014357e-09	3.8826435e-09	0.9704114	839999.94	0.0025999998
1.2800199911693456e-09	-1.0616603e-09	-4.8533044e-09	0.97088194	839999.94	0.0025999998
1.2850054165516802e-09	4.398307e-09	9.706609e-10	0.9725694	840000.06	0.0025999998
1.2900152312865298e-09	-2.0929876e-09	5.338635e-09	0.97406995	839999.94	0.0025999998
1.2950218158552947e-09	-4.337641e-09	-3.8826435e-09	0.97585577	839999.94	0.0025999998
1.3000022984454606e-09	4.9139706e-09	-3.8826435e-09	0.9770346	840000.06	0.0025999998
1.305010355729724e-09	2.483527e-09	4.8533044e-09	0.97685975	840000.06	0.0025999995
1.3100215489656781e-09	-6.73396e-09	1.2133261e-09	0.9760797	840000.06	0.0025999998
1.3150107034442692e-09	1.6076571e-09	-6.5519608e-09	0.97468066	839999.94	0.0025999998
1.320002239327391e-09	5.6116334e-09	3.6399783e-09	0.9728066	839999.94	0.0025999998
1.3250196315582737e-09	-5.399301e-09	3.8826435e-09	0.97131515	839999.94	0.0025999998
1.330009275086166e-09	-1.501491e-09	-6.0666303e-09	0.9709947	839999.94	0.0025999998
1.3350225405531412e-09	6.5216277e-09	-9.706609e-10	0.9713307	840000.06	0.0025999998
1.3400083922743842e-09	-3.4276462e-09	7.522622e-09	0.9725147	839999.94	0.0025999998
1.3450171695374083e-09	-6.8249593e-09	-4.8533044e-09	0.9744804	839999.94	0.0025999998
1.3500247199075561e-09	3.973643e-09	-3.6399783e-09	0.97575414	840000.06	0.0025999998
1.3550062706503211e-09	9.934108e-10	6.5519608e-09	0.9765484	840000.06	0.0025999998
1.3600148795353451e-09	-3.92056e-09	-1.6986565e-09	0.97673756	839999.94	0.0025999998
1.3650010656574674e-09	9.327444e-10	-3.1546479e-09	0.9757738	840000.06	0.0025999998
1.3700156689480977e-09	2.183987e-09	9.706609e-10	0.9742961	839999.94	0.0025999998
1.375006493379474e-09	4.549973e-10	4.8533044e-10	0.9728476	839999.94	0.0026
1.3800229485811767e-09	-2.8664828e-09	1.4559913e-09	0.97163725	839999.94	0.0025999998
1.3850123894389609e-09	-2.2749864e-11	-1.6986565e-09	0.9710699	840000.06	0.0025999998
1.3900251386295262e-09	2.4873186e-09	-1.4559913e-09	0.97175807	839999.94	0.0025999998
1.3950106193521333e-09	-8.341617e-10	5.0959694e-09	0.97297746	839999.94	0.0025999998
1.4000201337435945e-09	-3.7309777e-09	-3.6399783e-09	0.9743026	840000.06	0.0025999998
1.4050021505284519e-09	3.4579795e-09	-3.8826435e-09	0.9758013	839999.94	0.0025999998
1.4100099337565817e-09	1.6379902e-09	5.8239653e-09	0.9764314	840000.06	0.0025999998
1.4150193887874023e-09	-5.998381e-09	0	0.9762279	840000.06	0.0025999998
1.420005629587293e-09	9.2516117e-10	-3.8826435e-09	0.9755389	839999.94	0.0025999998
1.4250200790106645e-09	3.4579795e-09	2.4266522e-09	0.9741947	839999.94	0.0025999995
1.4300104441990428e-09	-2.972649e-09	5.5813e-09	0.9727044	840000.06	0.0025999998
1.4350006976307336e-09	-3.4579795e-09	-6.3092958e-09	0.9717556	839999.94	0.0025999998
1.440015100721584e-09	6.9614585e-09	-1.2133261e-09	0.9715497	839999.94	0.0025999998
1.4450024143146103e-09	-1.5318242e-09	8.0079525e-09	0.9719329	840000.06	0.0025999998
1.450013392435704e-09	-5.975631e-09	-2.6693174e-09	0.9731749	839999.94	0.0025999998
1.4550226430668982e-09	2.6693174e-09	-5.8239653e-09	0.97461516	839999.94	0.0025999995
1.4600054776687442e-09	4.307308e-09	5.5813e-09	0.97555315	839999.94	0.0026
1.4650136899220746e-09	-4.686472e-09	4.1253085e-09	0.9762118	840000.06	0.0025999998
1.470023419638157e-09	-3.9812265e-09	-6.5519608e-09	0.976078	839999.94	0.0025999998
1.475010031576666e-09	7.128291e-09	-2.6693174e-09	0.9751477	839999.94	0.0025999998
1.480024180449569e-09	-1.6304069e-10	6.0666303e-09	0.9739827	839999.94	0.0025999998
1.4850141270665469e-09	-8.2657845e-09	2.4266522e-10	0.9727941	839999.94	0.0025999998
1.490004011367609e-09	3.9433098e-10	-6.5519608e-09	0.97187394	839999.94	0.0025999998
1.495018193065229e-09	6.73396e-09	2.9119827e-09	0.9717119	840000.06	0.0025999998
1.5000050870950276e-09	-3.7764774e-09	7.522622e-09	0.97238666	839999.94	0.0025999998
1.5050161042636812e-09	-5.7329657e-09	-9.221278e-09	0.9733606	839999.94	0.0025999998
1.5100001060726439e-09	1.20725945e-08	-1.4559913e-09	0.97457474	839999.94	0.0025999998
1.5150084392283859e-09	-1.4787412e-09	1.1405265e-08	0.97564715	839999.94	0.0025999995
1.520017266754092e-09	-1.0457354e-08	-4.367974e-09	0.9759412	839999.94	0.0025999998
1.5250018170054788e-09	7.7197875e-09	-7.522622e-09	0.9757345	840000.06	0.0025999998
1.5300139745369734e-09	5.763299e-09	1.0191939e-08	0.97500485	839999.94	0.0025999998
1.5350026537838682e-09	-1.10716005e-08	2.9119827e-09	0.9738051	840000.06	0.0025999998
1.5400178359750067e-09	1.5469908e-09	-1.2861257e-08	0.97271085	840000.06	0.0025999998
1.545007269784535e-09	1.1018518e-08	5.5813e-09	0.9720928	839999.94	0.0025999998
1.550021145011244e-09	-1.118535e-08	7.765287e-09	0.97200197	839999.94	0.0025999998
1.5550079678029056e-09	-3.579312e-09	-1.3589252e-08	0.9725376	840000.06	0.0025999998
1.5600187906007202e-09	1.0191939e-08	1.9413218e-09	0.97364885	839999.94	0.0025999998
1.5650027641155707e-09	-5.00497e-09	9.221278e-09	0.97468096	839999.94	0.0025999998
1.5700116192896367e-09	-6.2258794e-09	-8.0079525e-09	0.9754407	839999.94	0.0025999998
1.5750205954463221e-09	1.2193928e-08	-4.8533044e-10	0.97584337	839999.94	0.0025999998
1.5800055816220627e-09	-4.879846e-09	1.11626e-08	0.9754976	839999.94	0.0025999998
1.5850179898245667e-09	-1.0222273e-08	-9.221278e-09	0.9746856	839999.94	0.0025999998
1.5900064301846373e-09	1.2042261e-08	-4.610639e-09	0.9737282	840000.06	0.0025999998
1.5950214832628105e-09	-1.9716548e-09	1.3346587e-08	0.9727497	840000.06	0.0025999998
1.600010600559643e-09	-1.2209094e-08	-4.610639e-09	0.9721678	839999.94	0.0025999998
1.6050241518489985e-09	7.7501205e-09	-9.463943e-09	0.9722569	839999.94	0.0025999998
1.610010709718734e-09	5.3841345e-09	1.0919935e-08	0.97285694	839999.94	0.0025999998
1.6150216181800257e-09	-1.169343e-08	9.706609e-10	0.9737282	840000.06	0.0025999998
1.6200055667232365e-09	3.1394813e-09	-1.1647931e-08	0.97475046	839999.94	0.0025999998
1.6250145498968594e-09	6.316879e-09	4.367974e-09	0.9754327	840000.06	0.0026
1.6300240405716647e-09	-7.643955e-09	5.338635e-09	0.9755574	839999.94	0.0025999998
1.635009230844875e-09	-1.5621574e-09	-6.794626e-09	0.9752963	839999.94	0.0025999998
1.6400218611701887e-09	4.5196398e-09	1.4559913e-09	0.97453344	839999.94	0.0025999998
1.6450103986088326e-09	-3.184981e-10	2.6693174e-09	0.97355014	839999.94	0.0025999998
1.6500250876037514e-09	-1.6379902e-09	7.2799566e-10	0.97277796	840000.06	0.0025999998
1.6550138910042759e-09	-2.290153e-09	-1.6986565e-09	0.97236705	840000.06	0.0025999998
1.6600016063562208e-09	3.0939815e-09	-9.706609e-10	0.97243375	839999.94	0.0025999998
1.6650135637607543e-09	9.706609e-10	5.8239653e-09	0.97305083	840000.06	0.0025999998
1.6700242184514101e-09	-7.810787e-09	4.8533044e-10	0.9739528	839999.94	0.0025999998
1.6750083659160207e-09	3.3821466e-09	-7.765287e-09	0.9747324	839999.94	0.0025999998
1.6800176225389723e-09	6.005964e-09	7.522622e-09	0.9753157	839999.94	0.0025999998
1.6850018103544414e-09	-7.985203e-09	6.0666303e-09	0.97545797	839999.94	0.0025999998
1.6900130233315192e-09	-3.484521e-09	-9.463943e-09	0.97502905	840000.06	0.0025999998
1.6950001722783046e-09	9.312278e-09	-4.8533044e-10	0.9743434	839999.94	0.0025999998
1.7000141907142105e-09	-2.0323212e-09	1.1890596e-08	0.97351897	840000.06	0.0025999998
1.7050031422597596e-09	-1.1526598e-08	-2.4266522e-09	0.9727841	839999.94	0.0025999998
1.7100171480739912e-09	7.583288e-09	-8.250617e-09	0.9724858	839999.94	0.0025999998
1.715004555439617e-09	5.60405e-09	8.735948e-09	0.97268444	839999.94	0.0026
1.7200163713640496e-09	-1.0222273e-08	2.9119827e-09	0.97324	839999.94	0.0026
1.7250014104029174e-09	6.976625e-10	-1.11626e-08	0.97402334	839999.94	0.0025999998
1.7300111137276926e-09	9.069613e-09	3.8826435e-09	0.97480506	839999.94	0.0025999998
1.7350206369090837e-09	-7.3254562e-09	8.978613e-09	0.9752136	839999.94	0.0025999998
1.7400052660780802e-09	-6.627794e-09	-9.706609e-09	0.97523826	840000.06	0.0025999998
1.7450166614885616e-09	1.1010934e-08	-3.1546479e-09	0.97489476	840000.06	0.0025999998
1.7500040113660607e-09	-4.549973e-10	1.2375926e-08	0.9741743	840000.06	0.0025999998
1.7550179542418663e-09	-1.169343e-08	-3.1546479e-09	0.97341764	839999.94	0.0025999998
1.7600065971040872e-09	7.693246e-09	-9.221278e-09	0.97286814	839999.94	0.0025999998
1.7650203589723877e-09	5.2438436e-09	9.221278e-09	0.9726282	839999.94	0.0025999998
1.7700074941741911e-09	-1.231526e-08	9.706609e-10	0.97283703	839999.94	0.0025999998
1.7750190573783204e-09	3.3593965e-09	-1.1890596e-08	0.9734369	839999.94	0.0025999998
1.7800040637045546e-09	9.289528e-09	6.794626e-09	0.9741448	840000.06	0.0025999998
1.7850139572395578e-09	-1.0919935e-08	7.522622e-09	0.9747563	839999.94	0.0025999998
1.7900237147244038e-09	-3.806811e-09	-1.2133261e-08	0.97514635	840000.06	0.0025999998
1.7950086464423795e-09	1.2967423e-08	-3.1546479e-09	0.97509736	839999.94	0.0025999998
1.8000204153868848e-09	-3.36698e-09	1.2861257e-08	0.9746718	839999.94	0.0025999998
1.805007764185958e-09	-1.2163595e-08	-4.8533044e-09	0.97407264	839999.94	0.0025999998
1.8100216067890516e-09	9.206111e-09	-1.067727e-08	0.9733839	840000.06	0.0025999998
1.8150100312934446e-09	7.962453e-09	1.0434604e-08	0.9728882	839999.94	0.0025999998
1.8200234441483024e-09	-1.1678264e-08	5.0959694e-09	0.9727802	839999.94	0.0025999998
1.825010357950591e-09	-3.2001477e-09	-1.11626e-08	0.97302914	839999.94	0.0025999998
1.8300218601431815e-09	1.1238433e-08	-4.8533044e-10	0.9735572	839999.94	0.0025999998
1.8350068193521775e-09	-3.3063137e-09	1.1647931e-08	0.9742261	840000.06	0.0025999998
1.840016810843344e-09	-9.160612e-09	-7.037291e-09	0.97477585	839999.94	0.0025999998
1.8450012972717029e-09	9.873441e-09	-7.2799566e-09	0.9750119	839999.94	0.0025999998
1.8500121132322825e-09	2.8968161e-09	1.1647931e-08	0.9749498	839999.94	0.0026
1.8550240382756807e-09	-1.2065011e-08	-1.4559913e-09	0.9745477	839999.94	0.0025999998
1.8600115001814461e-09	3.761311e-09	-1.0919935e-08	0.97392756	840000.06	0.0025999998
1.8650251948037124e-09	1.01540225e-08	6.5519608e-09	0.97336036	839999.94	0.0025999998
1.87001333793762e-09	-1.1367349e-08	9.949274e-09	0.97297335	840000.06	0.0025999998
1.8750009561117366e-09	-5.687466e-09	-1.4802579e-08	0.9728892	839999.94	0.0025999998
1.8800132386533156e-09	1.4332414e-08	-4.8533044e-10	0.97318053	839999.94	0.0025999998
1.8850245876566558e-09	-5.2931353e-09	1.528791e-08	0.97371024	839999.94	0.0026
1.890009620345776e-09	-1.3149422e-08	-7.765287e-09	0.97427255	839999.94	0.0025999998
1.895019758918531e-09	8.963447e-09	-8.978613e-09	0.97473747	839999.94	0.0025999998
1.9000044978923445e-09	5.8087988e-09	1.2375926e-08	0.97494495	839999.94	0.0026
1.9050155751435158e-09	-1.44537475e-08	1.6986565e-09	0.97479236	839999.94	0.0025999998
1.9100020971720573e-09	3.3214802e-09	-1.26185915e-08	0.9743989	839999.94	0.0025999998
1.9150151162620135e-09	1.1086767e-08	8.250617e-09	0.9738666	839999.94	0.0026
1.9200031171275775e-09	-1.3407253e-08	6.794626e-09	0.9733328	839999.94	0.0025999998
1.925016600946781e-09	-2.3053195e-09	-1.1890596e-08	0.9730301	840000.06	0.0025999998
1.9300039566350223e-09	1.1192934e-08	1.4559913e-09	0.9730354	839999.94	0.0025999998
1.9350161158431964e-09	-3.9433097e-09	1.0434604e-08	0.973314	839999.94	0.0025999998
1.9400017804498473e-09	-9.812775e-09	-7.2799566e-09	0.97380155	839999.94	0.0025999998
1.9450124449402276e-09	1.00402735e-08	-8.735948e-09	0.97433543	839999.94	0.0025999998
1.9500227656183833e-09	4.42864e-09	1.3346587e-08	0.97470486	839999.94	0.0025999998
1.955007757962641e-09	-1.2235636e-08	1.2133261e-09	0.9748268	840000.06	0.0025999998
1.96001899758207e-09	2.3735691e-09	-1.0191939e-08	0.9746844	839999.94	0.0025999998
1.9650056410041195e-09	7.7501205e-09	4.367974e-09	0.97427785	839999.94	0.0025999998
1.9700186921253723e-09	-6.8097927e-09	5.8239653e-09	0.9737739	839999.94	0.0025999998
1.9750065285315772e-09	-4.098767e-09	-7.2799566e-09	0.97335154	839999.94	0.0025999998
1.9800198292770282e-09	9.43361e-09	-2.4266522e-09	0.9731	839999.94	0.0025999998
1.985007013277747e-09	6.2182964e-10	1.1405265e-08	0.9731373	839999.94	0.0025999998
1.9900189951819325e-09	-1.0904769e-08	-1.4559913e-09	0.97345155	839999.94	0.0025999998
1.9950046109916517e-09	2.5479847e-09	-1.067727e-08	0.97389805	839999.94	0.0025999998
2.0000205396931845e-09	8.85728e-09	4.610639e-09	0.97434884	800000	0.0025999998
2.005010843874456e-09	-6.5822943e-09	8.250617e-09	0.97248954	800000	0.0025999998
2.0100229848738897e-09	-7.2192905e-09	-8.735948e-09	0.9702167	800000	0.0025999998
2.0150083778283033e-09	9.706609e-09	-4.367974e-09	0.96766305	800000	0.0025999998
2.0200232759142112e-09	2.0626543e-09	9.463943e-09	0.96354264	800000	0.0025999998
2.025014112871194e-09	-9.5246095e-09	-2.4266522e-10	0.96071255	800000	0.0025999998
2.0300051740372426e-09	2.8209832e-09	-7.765287e-09	0.96041095	800000	0.0026
2.0350225311944494e-09	6.597461e-09	3.8826435e-09	0.96192783	800000	0.0026
2.040011666517627e-09	-3.2759804e-09	7.765287e-09	0.96382564	800000	0.0025999998
2.0450240999408e-09	-6.0666303e-09	-4.8533044e-09	0.96777946	800000	0.0025999998
2.0500092117429763e-09	6.6126273e-09	-3.6399783e-09	0.9714307	800000	0.0025999998
2.055019372073511e-09	2.312903e-09	7.2799566e-09	0.97222984	800000	0.0025999998
2.0600019786387164e-09	-7.981411e-09	1.2133261e-09	0.9725745	800000	0.0025999998
2.065011524392218e-09	1.9034054e-09	-5.8239653e-09	0.9716623	800000	0.0025999998
2.0700006380644818e-09	5.399301e-09	1.2133261e-09	0.96811426	800000	0.0025999998
2.0750175614184084e-09	-3.34423e-09	5.8239653e-09	0.9647703	800000	0.0026
2.08001125550934e-09	-2.2749864e-09	-3.8826435e-09	0.9626484	800000	0.0025999998
2.085004984769654e-09	5.2324687e-09	-9.706609e-10	0.9610969	800000	0.0025999998
2.090021331312636e-09	4.777472e-10	5.8239653e-09	0.961201	800000	0.0025999998
2.09500824363709e-09	-4.549973e-09	-1.4559913e-09	0.96374553	800000	0.0025999998
2.1000204555128144e-09	6.976625e-10	-5.338635e-09	0.96706575	800000	0.0025999998
2.1050055331880886e-09	3.36698e-09	9.706609e-10	0.96924126	800000	0.0025999998
2.1100121365975723e-09	9.099946e-11	4.1253085e-09	0.9717402	800000	0.0025999998
2.1150210415161953e-09	-4.0949755e-09	-2.4266522e-10	0.9728249	800000	0.0025999998
2.120007414359036e-09	7.8866197e-10	-3.1546479e-09	0.9710747	800000	0.0025999998
2.1250229629863285e-09	2.7299838e-09	1.4559913e-09	0.9691189	800000	0.0025999998
2.130015233561371e-09	-1.68349e-09	2.9119827e-09	0.9665133	800000	0.0025999998
2.1350098984641572e-09	-2.2446534e-09	-2.9119827e-09	0.9634624	800000	0.0025999998
2.140001944032084e-09	4.185975e-09	0	0.9616498	800000	0.0025999998
2.1450160005957554e-09	3.0333153e-10	5.8239653e-09	0.9619683	800000	0.0025999998
2.1500045577627137e-09	-8.4629495e-09	-2.9119827e-09	0.96346	800000	0.0025999998
2.1550164506393994e-09	4.8533044e-09	-5.8239653e-09	0.9654112	800000	0.0025999998
2.1600250114648135e-09	3.3366467e-09	7.2799566e-09	0.96877414	800000	0.0025999998
2.1650081135551985e-09	-8.99378e-09	2.6693174e-09	0.97109723	800000	0.0025999998
2.17001901855455e-09	-9.47911e-10	-7.522622e-09	0.9715413	800000	0.0026
2.1750057674635254e-09	7.856286e-09	1.9413218e-09	0.97151875	800000	0.0025999998
2.180021090451525e-09	-6.1500467e-09	5.8239653e-09	0.9699864	800000	0.0025999998
2.1850135827875353e-09	-5.9604646e-09	-5.0959694e-09	0.9670418	800000	0.0025999998
2.1900054280072786e-09	7.3254562e-09	-4.8533044e-09	0.9645188	800000	0.0025999998
2.1950218112435152e-09	2.5479847e-09	7.2799566e-09	0.96297175	800000	0.0025999998
2.200011694080041e-09	-7.0486665e-09	2.4266522e-09	0.96221274	800000	0.0025999998
2.2050253608370975e-09	-3.8826435e-09	-6.794626e-09	0.962857	800000	0.0025999998
2.2100107097331354e-09	8.432616e-09	-3.397313e-09	0.9653375	800000	0.0025999998
2.2150216344856914e-09	1.4256581e-09	1.1405265e-08	0.967854	800000	0.0026
2.2200067905818794e-09	-9.858274e-09	-1.4559913e-09	0.969648	800000	0.0025999998
2.2250172115199245e-09	1.7669062e-09	-1.0919935e-08	0.9714147	800000	0.0025999998
2.230004386332941e-09	1.0389105e-08	5.338635e-09	0.9714893	800000	0.0025999998
2.2350191101507036e-09	-5.975631e-09	1.0434604e-08	0.96987736	800000	0.0025999998
2.2400091196697963e-09	-1.0161606e-08	-5.8239653e-09	0.96801805	800000	0.0025999998
2.2450254679418273e-09	1.0222273e-08	-8.735948e-09	0.9657247	800000	0.0025999998
2.2500167260317914e-09	7.2496236e-09	1.26185915e-08	0.963559	800000	0.0026
2.2550061595629007e-09	-1.6546736e-08	3.8826435e-09	0.962566	800000	0.0025999995
2.260019587805457e-09	-2.2294868e-09	-1.4559913e-08	0.9633255	800000	0.0025999998
2.2650073379868425e-09	1.3528586e-08	-9.706609e-10	0.96475375	800000	0.0025999998
2.270019209798152e-09	2.4266522e-10	1.31039215e-08	0.9667075	800000	0.0025999998
2.2750041533770043e-09	-1.3073588e-08	-9.706609e-10	0.96932214	800000	0.0025999998
2.2800154877060744e-09	3.4579795e-09	-9.949274e-09	0.97069955	800000	0.0025999998
2.285002318415073e-09	7.970036e-09	4.1253085e-09	0.9708538	800000	0.0025999995
2.290015088503351e-09	-4.6409725e-09	6.3092958e-09	0.97036994	800000	0.0025999998
2.2950043641034937e-09	-3.7764774e-09	-2.9119827e-09	0.9686682	800000	0.0026
2.3000204743272034e-09	-6.369962e-10	-2.4266522e-09	0.96627533	800000	0.0025999998
2.305010760086301e-09	5.05047e-09	-1.4559913e-09	0.9643918	800000	0.0025999998
2.3100006923782696e-09	1.7820727e-09	6.794626e-09	0.96345544	800000	0.0025999998
2.315015727202266e-09	-8.387117e-09	1.9413218e-09	0.96326077	800000	0.0025999998
2.3200037089570866e-09	4.8533044e-10	-8.250617e-09	0.9642986	800000	0.0025999998
2.3250155410136663e-09	7.9776195e-09	1.4559913e-09	0.9665208	800000	0.0025999998
2.3300018595575142e-09	-1.4863245e-09	8.250617e-09	0.9683984	800000	0.0025999998
2.3350130823651015e-09	-9.5246095e-09	-2.4266522e-09	0.96982896	800000	0.0026
2.3400241182169763e-09	6.005964e-09	-1.0191939e-08	0.9708239	800000	0.0025999998
2.3450113294177007e-09	8.37195e-09	8.4932825e-09	0.97034323	800000	0.0025999998
2.350025516132541e-09	-1.1678264e-08	4.8533044e-09	0.9688373	800000	0.0025999998
2.355015159952044e-09	-4.2466414e-10	-1.11626e-08	0.9671047	800000	0.0025999998
2.3600056778677916e-09	1.1268766e-08	2.9119827e-09	0.9652872	800000	0.0025999998
2.3650219721730974e-09	-5.763299e-09	1.1647931e-08	0.96382165	800000	0.0025999998
2.370011279319257e-09	-9.979607e-09	-6.5519608e-09	0.9634998	800000	0.0025999998
2.375024878149491e-09	8.432616e-09	-9.706609e-09	0.96448296	800000	0.0026
2.38001249469147e-09	7.4619555e-09	1.067727e-08	0.9658342	800000	0.0025999998
2.38502413955277e-09	-1.0404271e-08	2.9119827e-09	0.96764606	800000	0.0025999998
2.3900093723944447e-09	8.189951e-10	-9.706609e-09	0.96951777	800000	0.0025999998
2.3950209159999364e-09	6.946292e-09	3.1546479e-09	0.9702512	800000	0.0025999998
2.4000076952796777e-09	-4.716805e-09	5.5813e-09	0.9701151	800000	0.0025999998
2.405021116989204e-09	-5.368968e-09	-2.4266522e-09	0.9692944	800000	0.0025999998
2.4100107813758303e-09	1.6986565e-09	-5.8239653e-09	0.9676648	800000	0.0025999998
2.4150013011915678e-09	5.7026326e-09	2.9119827e-09	0.9657776	800000	0.0025999998
2.4200171365972153e-09	-5.1945523e-09	5.8239653e-09	0.9644715	800000	0.0025999998
2.4250066497201464e-09	-4.337641e-09	-5.8239653e-09	0.96403044	800000	0.0025999998
2.4300211061934013e-09	6.9917916e-09	-2.4266522e-09	0.9642489	800000	0.0025999998
2.43500843678482e-09	1.9868216e-09	7.765287e-09	0.96549386	800000	0.0025999998
2.4400201058189166e-09	-7.765287e-09	4.8533044e-10	0.9673383	800000	0.0025999998
2.4450061973730667e-09	-1.8730721e-09	-7.2799566e-09	0.96873933	800000	0.0025999998
2.45001756068775e-09	6.6732935e-09	4.8533044e-10	0.9697558	800000	0.0025999998
2.455003938064594e-09	-1.1678264e-09	6.3092958e-09	0.9701213	800000	0.0025999998
2.4600175673075177e-09	-6.347212e-09	4.8533044e-10	0.96936536	800000	0.0026
2.46500673789661e-09	1.6000739e-09	-6.794626e-09	0.96796834	800000	0.0025999998
2.470022230113663e-09	6.893209e-09	1.9413218e-09	0.96646243	800000	0.0025999998
2.4750124624894235e-09	-5.687466e-09	7.765287e-09	0.96511126	800000	0.0025999998
2.480002351324711e-09	-5.7784657e-09	-1.0191939e-08	0.9642316	800000	0.0025999998
2.48501642415531e-09	1.3922917e-08	-1.4559913e-09	0.96439755	800000	0.0025999998
2.4900040217631032e-09	-3.6248118e-09	1.7229231e-08	0.9654334	800000	0.0025999998
2.4950166355765957e-09	-1.570499e-08	-8.735948e-09	0.9666967	800000	0.0025999998
2.5000025889316034e-09	1.1860263e-08	-1.2133261e-08	0.96822304	800000	0.0025999998
2.505014034343493e-09	8.584282e-09	1.5530574e-08	0.9694594	800000	0.0025999998
2.5100007718205118e-09	-1.7229231e-08	5.338635e-09	0.96975446	800000	0.0025999998
2.5150139265627915e-09	-7.8866197e-10	-1.6501234e-08	0.96936184	800000	0.0025999998
2.5200025118917494e-09	1.6668068e-08	4.8533044e-09	0.96839345	800000	0.0026
2.5250178463635103e-09	-1.000994e-08	1.31039215e-08	0.9669467	800000	0.0025999998
2.5300078823238714e-09	-9.645943e-09	-1.4074582e-08	0.9655133	800000	0.0025999998
2.5350229829820716e-09	1.3771252e-08	-3.8826435e-09	0.96472055	800000	0.0025999998
2.5400118643002455e-09	4.549973e-11	1.3831918e-08	0.9646433	800000	0.0025999998
2.5450000205695162e-09	-1.1481098e-08	-2.6693174e-09	0.96514463	800000	0.0025999998
2.5500125273189255e-09	4.0343093e-09	-5.8239653e-09	0.9664121	800000	0.0025999998
2.555024471067042e-09	4.549973e-09	4.8533044e-09	0.96786314	800000	0.0026
2.560010910586005e-09	-3.928143e-09	2.9119827e-09	0.9688798	800000	0.0025999998
2.5650229346950336e-09	-1.8351557e-09	-3.397313e-09	0.96948516	800000	0.0025999998
2.5700101878459184e-09	1.3043255e-09	-4.8533044e-10	0.969415	800000	0.0025999998
2.5750242312262643e-09	1.0313271e-09	9.706609e-10	0.96854293	800000	0.0025999998
2.5800134549856185e-09	4.8533044e-10	-1.4559913e-09	0.9672848	800000	0.0026
2.5850030726116498e-09	-1.7289897e-09	3.397313e-09	0.96608406	800000	0.0025999998
2.59001824503812e-09	-2.2977362e-09	-1.9413218e-09	0.9651429	800000	0.0025999998
2.5950074530552335e-09	2.3204862e-09	-1.4559913e-09	0.96473444	800000	0.0026
2.6000211076173874e-09	1.9640716e-09	3.8826435e-09	0.96520346	800000	0.0025999998
2.6050085237652127e-09	-5.6192166e-09	-9.706609e-10	0.9662016	800000	0.0025999998
2.6100210533537177e-09	3.1546479e-09	-5.0959694e-09	0.9673317	800000	0.0025999998
2.6150073248158084e-09	4.390724e-09	5.338635e-09	0.9685132	800000	0.0025999998
2.6200193937447883e-09	-8.114118e-09	2.4266522e-09	0.96924365	800000	0.0025999998
2.6250066475284567e-09	-1.8579056e-10	-8.735948e-09	0.9692283	800000	0.0025999998
2.6300201997490483e-09	7.135874e-09	3.8826435e-09	0.96865827	800000	0.0025999998
2.63500900190351e-09	-7.424039e-09	5.338635e-09	0.9676826	800000	0.0025999998
2.640024145377187e-09	-3.6399783e-09	-9.221278e-09	0.9664752	800000	0.0026
2.64501367443821e-09	1.1147433e-08	1.4559913e-09	0.96546054	800000	0.0025999998
2.6500027505294636e-09	-5.7329657e-09	1.11626e-08	0.9650738	800000	0.0025999998
2.6550168089096873e-09	-1.0745519e-08	-1.1647931e-08	0.9652493	800000	0.0025999998
2.660004604785358e-09	1.5303076e-08	-8.250617e-09	0.9659164	800000	0.0025999998
2.665017086391422e-09	2.8209832e-09	1.6501234e-08	0.9670685	800000	0.0025999998
2.6700036400138054e-09	-1.7183732e-08	-2.4266522e-09	0.96815664	800000	0.0025999998
2.675015947270059e-09	6.127297e-09	-1.5530574e-08	0.9688477	800000	0.0026
2.6800028767944975e-09	1.4302081e-08	1.067727e-08	0.96909994	800000	0.0025999998
2.6850162321591493e-09	-1.4264165e-08	1.067727e-08	0.96876365	800000	0.0025999998
2.690004874429102e-09	-5.422051e-09	-1.5530574e-08	0.96788174	800000	0.0025999998
2.6950196469904104e-09	1.3058422e-08	-4.8533044e-10	0.9668051	800000	0.0025999998
2.700009038210776e-09	-5.217302e-09	1.2133261e-08	0.9659088	800000	0.0025999998
2.7050238240773063e-09	-8.4932825e-09	-5.338635e-09	0.9653228	800000	0.0025999998
2.7100124963472686e-09	6.415462e-09	-3.397313e-09	0.9652713	800000	0.0025999998
2.7150002921611596e-09	-1.0995768e-09	5.338635e-09	0.9658817	800000	0.0025999998
2.7200131703694096e-09	-2.8209832e-09	-3.8826435e-09	0.96679425	800000	0.0025999998
2.7250000312526074e-09	4.0949755e-09	1.9413218e-09	0.9677427	800000	0.0026
2.7300121392859353e-09	-3.8826435e-09	3.397313e-09	0.9685823	800000	0.0025999998
2.7350247442965986e-09	-2.23707e-09	-6.794626e-09	0.9689379	800000	0.0025999998
2.7400123897971526e-09	7.643955e-09	0	0.96870667	800000	0.0025999998
2.745000684127743e-09	-4.0191428e-10	9.706609e-09	0.96805865	800000	0.0026
2.750015221520704e-09	-1.1981595e-08	-3.8826435e-09	0.9671626	800000	0.0025999998
2.755004584128604e-09	7.3406228e-09	-9.221278e-09	0.9662165	800000	0.0025999998
2.760019330738869e-09	8.030702e-09	1.11626e-08	0.96556467	800000	0.0025999998
2.7650079212001625e-09	-1.17010135e-08	4.8533044e-09	0.9654705	800000	0.0025999998
2.770021699636109e-09	-5.9149646e-10	-1.3589252e-08	0.96581185	800000	0.0025999998
2.7750091895182573e-09	1.1420432e-08	2.9119827e-09	0.9665343	800000	0.0025999998
2.7800216643525537e-09	-6.3851284e-09	7.765287e-09	0.96750045	800000	0.0025999998
2.7850084677801683e-09	-5.2021356e-09	-7.2799566e-09	0.96828127	800000	0.0025999998
2.790021082543021e-09	8.569115e-09	-2.4266522e-09	0.96868736	800000	0.0026
2.7950084780167655e-09	-1.0313271e-09	7.765287e-09	0.9686753	800000	0.0025999998
2.8000221880471184e-09	-5.437218e-09	-3.1546479e-09	0.9681982	800000	0.0025999998
2.805010973209794e-09	3.3593965e-09	-2.4266522e-09	0.96737224	800000	0.0025999998
2.8100000953971457e-09	-9.8582746e-11	5.338635e-09	0.96651506	800000	0.0025999998
2.815014744048356e-09	-2.8209832e-09	-9.706609e-10	0.96589124	800000	0.0025999998