# t (s)	mx ()	my ()	mz ()	Ku1.region100 (J/m3)	Dind.region100 (J/m2)
1e-09	2.79065e-09	-3.8826435e-09	0.90614504	750000	0.0030999999
1.005019147839727e-09	5.156636e-09	0	0.9034295	750000	0.0030999999
1.0100198915544032e-09	-1.6683234e-10	4.8533044e-09	0.89986694	750000	0.0031
1.0150105947232982e-09	-6.5822943e-09	3.8826435e-09	0.8956798	750000	0.0030999999
1.0200000478001421e-09	-3.5186456e-09	-1.11626e-08	0.88907075	750000	0.0031
1.0250177668949896e-09	7.613622e-09	-1.9413218e-09	0.88149554	750000	0.0031
1.0300110825337372e-09	4.185975e-09	7.765287e-09	0.8749743	750000	0.0030999999
1.0350016510051878e-09	-2.4569853e-09	3.397313e-09	0.87029064	750000	0.0031
1.0400172649916823e-09	-9.062029e-09	1.5773239e-09	0.86493015	750000	0.0031
1.0450054744413176e-09	1.895822e-09	-1.4559913e-08	0.86185956	750000	0.0031
1.050019496668864e-09	1.11626e-08	-9.706609e-10	0.8626496	750000	0.0030999999
1.0550095113257537e-09	2.7451503e-09	6.794626e-09	0.8636678	750000	0.0030999999
1.0600009248275105e-09	-4.1253085e-09	9.706609e-10	0.86641574	750000	0.0030999999
1.0650185840177645e-09	-6.794626e-09	-9.706609e-10	0.8717662	750000	0.0030999999
1.0700088004104494e-09	8.493283e-10	-8.735948e-09	0.878231	750000	0.0030999999
1.0750241582216734e-09	7.2192905e-09	-5.8239653e-09	0.8840716	750000	0.0031
1.0800133121454527e-09	6.794626e-09	8.250617e-09	0.8897015	750000	0.0030999999
1.0850027739110787e-09	-4.7319717e-09	7.158624e-09	0.8962054	750000	0.0030999999
1.0900184375120744e-09	-6.7491266e-09	-5.8239653e-09	0.89990735	750000	0.0030999999
1.0950079498075028e-09	7.825953e-09	-7.765287e-09	0.9013109	750000	0.0030999999
1.1000239033154444e-09	6.6126273e-09	7.765287e-09	0.9021797	750000	0.0030999999
1.1050149437402386e-09	-7.810787e-09	4.8533044e-09	0.90063804	750000	0.0031
1.1100038171226396e-09	-4.0343093e-09	-6.794626e-09	0.8965944	750000	0.0030999999
1.1150181781995416e-09	2.3659859e-09	-9.706609e-10	0.8913702	750000	0.0030999996
1.1200079351927347e-09	7.2799566e-10	9.706609e-10	0.8864673	750000	0.0031
1.1250233990052274e-09	1.3346587e-09	-2.4266522e-09	0.8804746	750000	0.0030999999
1.130014038850005e-09	5.217302e-09	2.9119827e-09	0.87419134	750000	0.0031
1.1350035907582715e-09	-4.261808e-09	6.5519608e-09	0.8703155	750000	0.0031
1.1400193269467298e-09	-7.4316224e-09	-6.3092958e-09	0.8674668	750000	0.0031
1.1450090492869675e-09	7.916952e-09	-6.794626e-09	0.8653232	750000	0.0030999999
1.1500235935339257e-09	3.0636484e-09	3.8826435e-09	0.8655394	750000	0.0030999999
1.1550139795539886e-09	1.4559913e-09	5.8239653e-09	0.8680537	750000	0.0030999999
1.1600039970138943e-09	-1.1405265e-08	0	0.87143147	750000	0.0031
1.1650202601821957e-09	-7.2799566e-10	-8.0079525e-09	0.8753861	750000	0.0030999999
1.1700105067767592e-09	7.522622e-09	-2.9119827e-09	0.88117445	750000	0.0030999999
1.1750004930764848e-09	3.8826435e-09	1.9413218e-09	0.88699394	750000	0.0030999996
1.1800163476792775e-09	1.3346587e-09	9.706609e-09	0.89137655	750000	0.0030999999
1.1850057170674857e-09	-1.0980601e-08	-9.706609e-10	0.89558756	750000	0.0030999999
1.1900212546033815e-09	-4.307308e-09	-1.1647931e-08	0.89889205	750000	0.0030999999
1.1950111119421195e-09	1.0237439e-08	-9.706609e-09	0.89987695	750000	0.0030999999
1.2000002252028843e-09	1.0070607e-08	9.706609e-09	0.89888805	750000	0.0031
1.2050158112244535e-09	-9.168195e-09	1.3589252e-08	0.8970676	750000	0.0031
1.2100056577785994e-09	-1.4377914e-08	-1.2133261e-08	0.8938444	750000	0.0030999999
1.2150209333908975e-09	9.827941e-09	-1.5530574e-08	0.88873994	750000	0.0030999999
1.2200108116138346e-09	1.851839e-08	2.4266522e-09	0.8837539	750000	0.0030999999
1.2250006413605535e-09	1.6683234e-09	1.7471896e-08	0.87934107	750000	0.0031
1.230016553641233e-09	-1.342242e-08	1.1647931e-08	0.87467074	750000	0.0030999999
1.2350060727073217e-09	-1.2466925e-08	-1.1647931e-08	0.8708764	750000	0.0030999999
1.2400215710256593e-09	3.1243148e-09	-1.26185915e-08	0.86909735	750000	0.0031
1.2450116592663756e-09	1.10412675e-08	-5.8239653e-09	0.86863804	750000	0.0030999999
1.2500013782147835e-09	1.0919935e-08	5.338635e-09	0.8689925	750000	0.0030999999
1.2550173071610813e-09	-3.1546479e-09	1.26185915e-08	0.87123597	750000	0.0031
1.2600071376483757e-09	-1.3407253e-08	1.9413218e-09	0.8751246	750000	0.0030999999
1.2650230943023284e-09	-9.630776e-09	-1.4559913e-08	0.8791169	750000	0.0030999999
1.2700129629488046e-09	1.2057428e-08	-1.4559913e-08	0.8834392	750000	0.0030999999
1.2750026872452783e-09	1.31039215e-08	1.2133261e-08	0.8883826	750000	0.0030999999
1.2800186392491676e-09	-1.000994e-08	1.1647931e-08	0.89255774	750000	0.0030999999
1.2850082599458658e-09	-1.3892584e-08	-7.765287e-09	0.89524245	750000	0.0030999999
1.2900233949782054e-09	7.037291e-09	-1.2133261e-08	0.8971116	750000	0.0030999999
1.2950133655946734e-09	1.395325e-08	0	0.89787334	750000	0.0030999996
1.3000029584043388e-09	1.1829929e-09	9.706609e-09	0.89660174	750000	0.0031
1.3050182359249548e-09	-2.5328182e-09	4.8533044e-09	0.8939305	750000	0.0030999999
1.3100079462306902e-09	-1.0919935e-08	1.9413218e-09	0.89084786	750000	0.0030999999
1.315023521094977e-09	-1.11626e-08	-1.2133261e-08	0.88687205	750000	0.0030999999
1.3200135598855312e-09	1.2527592e-08	-1.9413218e-08	0.8821816	750000	0.0030999999
1.3250031920209818e-09	2.2719531e-08	5.8239653e-09	0.87818	750000	0.0030999999
1.3300188917754143e-09	-4.049476e-09	3.1910478e-08	0.87503266	750000	0.0030999999
1.3350085431291503e-09	-2.8042999e-08	0	0.8723125	750000	0.0030999999
1.340023907064406e-09	-6.627794e-09	-2.4266521e-08	0.8707688	750000	0.0031
1.3450137634563548e-09	1.9382885e-08	-1.2133261e-08	0.87102956	750000	0.0030999999
1.3500036977403225e-09	1.1769263e-08	3.8826435e-09	0.8723502	750000	0.0030999999
1.355019508689973e-09	6.6732936e-10	1.6986565e-08	0.8743832	750000	0.0030999999
1.3600093079786226e-09	-1.3710585e-08	6.794626e-09	0.8777233	750000	0.0031
1.3650251731060322e-09	-1.2436592e-08	-1.1647931e-08	0.8818458	750000	0.0030999999
1.3700150965374347e-09	7.916952e-09	-1.5530574e-08	0.88560504	750000	0.0030999999
1.3750045223574217e-09	1.6865233e-08	-1.9413218e-09	0.88919556	750000	0.0030999999
1.3800200901986711e-09	7.522622e-09	1.9413218e-08	0.89261055	750000	0.0031
1.3850098433759568e-09	-1.7123064e-08	6.794626e-09	0.8948473	750000	0.0030999999
1.3900251525174676e-09	-9.827941e-09	-1.5530574e-08	0.89562047	750000	0.0031
1.3950148858007913e-09	9.0089465e-09	-9.706609e-09	0.895481	750000	0.0030999999
1.4000045781012235e-09	1.5181742e-08	1.9413218e-09	0.8943352	750000	0.0030999999
1.4050202007952343e-09	-1.7441563e-09	1.6501234e-08	0.8916771	750000	0.0031
1.4100097579318474e-09	-1.8950637e-08	-3.8826435e-09	0.88833296	750000	0.0030999999
1.4150252121470089e-09	2.6996505e-09	-1.5530574e-08	0.8849745	750000	0.0030999999
1.4200152940887152e-09	9.448777e-09	0	0.88133115	750000	0.0031
1.4250049563834027e-09	4.155642e-09	2.9119827e-09	0.87779737	750000	0.0031
1.4300203765197817e-09	-2.3356528e-09	5.8239653e-09	0.8752189	750000	0.0030999999
1.4350101176173982e-09	-6.764293e-09	-4.8533044e-09	0.8736893	750000	0.0031
1.440025560624534e-09	2.0323212e-09	-1.9413218e-09	0.87284476	750000	0.0030999999
1.4450154990545903e-09	-3.002982e-09	-9.706609e-10	0.8731511	750000	0.0030999996
1.4500053393946533e-09	2.3963191e-09	-3.8826435e-09	0.87489176	750000	0.0030999999
1.455021163561408e-09	4.1253085e-09	9.706609e-10	0.8772727	750000	0.0030999999
1.4600109602421875e-09	1.6379902e-09	2.9119827e-09	0.88008165	750000	0.0030999996
1.4650010548157334e-09	-3.5186456e-09	9.706609e-10	0.8835526	750000	0.0031
1.4700166816501628e-09	-2.79065e-09	-5.8239653e-09	0.8870755	750000	0.0031
1.475006460583801e-09	5.0201368e-09	-1.9413218e-09	0.8899382	750000	0.0030999999
1.4800219041038047e-09	1.2739924e-09	3.8826435e-09	0.89220494	750000	0.0030999999
1.4850116767790169e-09	-2.79065e-09	1.9413218e-09	0.8938747	750000	0.0031
1.4900015299190308e-09	-2.4266522e-10	9.706609e-10	0.8943112	750000	0.0030999999
1.4950169051570421e-09	-5.7784657e-09	-2.9119827e-09	0.8934734	750000	0.0030999999
1.5000065216125041e-09	1.3043255e-09	-9.706609e-09	0.8919883	750000	0.0030999999
1.505022057298186e-09	7.901786e-09	1.9413218e-09	0.88970584	750000	0.0031
1.5100119081946207e-09	-1.3801584e-09	5.8239653e-09	0.8866356	750000	0.0031
1.5150017113507185e-09	-5.8087988e-09	1.9413218e-09	0.8834414	750000	0.0031
1.520017244715003e-09	-2.5176516e-09	-7.765287e-09	0.8805616	750000	0.0030999999
1.525006979721205e-09	5.914965e-09	0	0.87794775	750000	0.0030999999
1.5300223417319387e-09	-3.9433098e-10	4.8533044e-09	0.87580425	750000	0.0030999999
1.535012093243264e-09	-1.2436593e-09	-2.9119827e-09	0.8747999	750000	0.0031
1.5400020165269996e-09	-5.4599675e-10	2.6693174e-09	0.8747546	750000	0.0030999999
1.545017622187844e-09	-4.4893067e-09	-3.761311e-09	0.87537324	750000	0.0030999999
1.5500074557932296e-09	-5.6116334e-10	-8.735948e-09	0.87697	750000	0.0030999999
1.5550232258809654e-09	9.736942e-09	-3.8826435e-09	0.8794331	750000	0.0030999999
1.5600132636957112e-09	4.2466413e-09	1.067727e-08	0.8821587	750000	0.0030999999
1.5650032633714866e-09	-1.1450765e-08	0	0.8849288	750000	0.0031
1.570018692055161e-09	2.4266522e-10	-1.4559913e-08	0.88779587	750000	0.0030999999
1.5750086762155418e-09	1.4347581e-08	-2.3053195e-09	0.89026076	750000	0.0030999999
1.5800241908956961e-09	7.2799566e-10	1.067727e-08	0.8918245	750000	0.0030999999
1.5850138884709813e-09	-1.10412675e-08	0	0.89267725	750000	0.0030999999
1.590003666647559e-09	1.8199892e-10	-8.250617e-09	0.892795	750000	0.0030999999
1.5950191879884817e-09	4.0646424e-09	1.4559913e-09	0.89183897	750000	0.0031
1.600008865576482e-09	-1.06166034e-10	-1.6986565e-09	0.8900493	750000	0.0031
1.6050242331262221e-09	5.5888836e-09	-9.706609e-10	0.8878421	750000	0.0031
1.6100140636303127e-09	1.7593228e-09	9.706609e-09	0.8853174	750000	0.0030999999
1.6150039227736296e-09	-8.933114e-09	2.4266522e-09	0.88252616	750000	0.0031
1.6200192515668825e-09	-2.2598199e-09	-9.706609e-09	0.88001704	750000	0.0031
1.6250089946692675e-09	7.886619e-09	-6.0666303e-09	0.8781369	750000	0.0030999999
1.6300245093927168e-09	9.069613e-09	9.221278e-09	0.87671006	750000	0.0030999999
1.6350142218653046e-09	-1.11626e-08	9.706609e-09	0.8760098	750000	0.0030999999
1.6400041153400028e-09	-8.068619e-09	-1.2254594e-08	0.8763026	750000	0.0030999999
1.6450197771774065e-09	6.5519608e-09	-9.706609e-10	0.8773559	750000	0.0030999999
1.650009711404209e-09	-3.6399783e-10	2.9119827e-09	0.87892324	750000	0.0031
1.6550253020841733e-09	1.5166576e-09	-2.9119827e-09	0.88107836	750000	0.0031
1.660015231177005e-09	1.9716549e-10	9.706609e-10	0.8836318	750000	0.0030999999
1.6650052308047885e-09	-6.0666305e-11	1.9413218e-09	0.8860566	750000	0.0030999999
1.6700206108491766e-09	-7.158624e-09	-1.9413218e-09	0.8882169	750000	0.0030999999
1.6750104413718709e-09	2.3659859e-09	-9.706609e-09	0.89008987	750000	0.0030999999
1.680000245311346e-09	5.7026326e-09	2.9119827e-09	0.89128834	750000	0.0031
1.6850156270379283e-09	-4.7319717e-09	9.706609e-10	0.89161724	750000	0.0030999999
1.690005323054262e-09	-2.0626543e-09	9.706609e-10	0.8912573	750000	0.0030999999
1.6950207644524002e-09	1.2133261e-10	-5.8239653e-09	0.89026195	750000	0.0030999999
1.700010527989897e-09	2.108154e-09	-2.4266522e-09	0.888551	750000	0.0031
1.705000300663821e-09	-4.1935584e-09	-1.9413218e-09	0.8863803	750000	0.0030999999
1.7100156067453954e-09	6.005964e-09	-5.8239653e-09	0.8841617	750000	0.0030999999
1.7150054560216768e-09	5.8846314e-09	8.735948e-09	0.8819621	750000	0.0030999999
1.7200209315863132e-09	-1.289159e-08	8.735948e-09	0.8798959	750000	0.0030999999
1.725010705333504e-09	-8.933114e-09	-1.7471896e-08	0.8784012	750000	0.0031
1.7300005476391018e-09	1.6137237e-08	-9.706609e-09	0.8775785	750000	0.0031
1.7350159778893256e-09	6.976625e-09	1.4559913e-08	0.87732536	750000	0.0030999999
1.740005859530355e-09	-1.3771252e-08	5.338635e-09	0.87774295	750000	0.0030999999
1.745021448284322e-09	-6.5519608e-09	-8.735948e-09	0.87892854	750000	0.0030999999
1.750011415746776e-09	8.083785e-09	-4.8533044e-09	0.88059294	750000	0.0031
1.7550014069792091e-09	3.867477e-09	5.8239653e-09	0.8824889	750000	0.0030999999
1.760016814668792e-09	-2.2749864e-10	1.9413218e-09	0.88463145	750000	0.0030999999
1.7650067423574156e-09	-6.0666305e-11	4.8533044e-09	0.886748	750000	0.0030999999
1.7700222518557337e-09	-8.978613e-09	1.9413218e-09	0.8884802	750000	0.0030999999
1.775012162858907e-09	-2.3659859e-09	-6.794626e-09	0.88974005	750000	0.0030999999
1.780002015045615e-09	7.825953e-09	-5.8239653e-09	0.89051604	750000	0.0031
1.7850174794055934e-09	7.037291e-09	5.8239653e-09	0.89060533	750000	0.0031
1.790007228000259e-09	-7.643955e-09	6.794626e-09	0.889954	750000	0.0030999999
1.7950226367720094e-09	-2.0323212e-09	-9.221278e-09	0.88879526	750000	0.0030999999
1.8000123905625076e-09	6.0666303e-09	-3.8826435e-09	0.8872493	750000	0.0030999999
1.8050022046750738e-09	2.6389844e-09	4.8533044e-09	0.8853261	750000	0.0030999999
1.810017585469245e-09	-3.1243148e-09	3.8826435e-09	0.8833174	750000	0.0030999999
1.8150074202111064e-09	-4.549973e-09	-5.338635e-09	0.88153857	750000	0.0030999999
1.8200228662530882e-09	5.156636e-09	0	0.88001645	750000	0.0030999999
1.8250127298672998e-09	-4.8533044e-10	-9.706609e-10	0.87888706	750000	0.0030999999
1.8300025362362555e-09	-1.0009941e-09	-7.765287e-09	0.87837905	750000	0.0030999999
1.8350180589290569e-09	7.552955e-09	1.9413218e-09	0.8785109	750000	0.0030999999
1.8400079150827233e-09	-1.8806554e-09	6.794626e-09	0.8791319	750000	0.0030999999
1.8450234981623364e-09	-1.1344599e-08	-2.9119827e-09	0.88026625	750000	0.0030999999
1.850013483313201e-09	3.2759804e-09	-1.3589252e-08	0.88186437	750000	0.0030999999
1.8550033419311455e-09	1.41959156e-08	-3.6399783e-10	0.88363785	750000	0.0030999999
1.860018856907956e-09	2.4266522e-10	1.6015905e-08	0.88540244	750000	0.0030999999
1.8650087100772977e-09	-1.2193928e-08	-4.8533044e-10	0.8870811	750000	0.0031
1.870024237449131e-09	-5.2779687e-09	-6.794626e-09	0.8884815	750000	0.0030999999
1.875014063095613e-09	4.5044732e-09	-9.706609e-09	0.8893533	750000	0.0030999999
1.880003982235294e-09	8.978613e-09	9.706609e-10	0.88969725	750000	0.0030999999
1.8850193779073082e-09	-1.8199892e-10	5.8239653e-09	0.88955134	750000	0.0030999999
1.890009191516449e-09	-3.6096452e-09	0	0.88883114	750000	0.0030999999
1.8950246914040083e-09	-6.5216277e-09	0	0.8876015	750000	0.0030999999
1.900014487164136e-09	-2.9271492e-09	-1.1647931e-08	0.8861222	750000	0.0031
1.9050042351450257e-09	1.182993e-08	-1.9413218e-09	0.8844994	750000	0.0030999999
1.910019633314147e-09	2.6693174e-09	1.3589252e-08	0.88281053	750000	0.0030999999
1.9150094729932357e-09	-1.24441755e-08	4.8533044e-09	0.88131833	750000	0.0030999999
1.920024911040875e-09	-9.61561e-09	-9.827941e-09	0.8802031	750000	0.0030999999
1.92501470062816e-09	8.85728e-09	-1.7471896e-08	0.8794896	750000	0.0030999996
1.9300045828066874e-09	1.1283933e-08	3.8826435e-09	0.87922627	750000	0.0031
1.93502005121065e-09	-1.1678264e-09	1.11626e-08	0.8795339	750000	0.0030999999
1.9400100078446358e-09	-8.85728e-09	1.9413218e-09	0.8803287	750000	0.0030999996
1.9450255124545066e-09	-5.5206337e-09	-9.706609e-10	0.88145626	750000	0.0030999999
1.9500153509546876e-09	8.493283e-10	-7.765287e-09	0.8828644	750000	0.0030999999
1.9550052679032002e-09	6.4912946e-09	-7.2799566e-09	0.8844444	750000	0.0030999999
1.960020726880597e-09	1.2952256e-08	7.2799566e-09	0.8859602	750000	0.0031
1.9650105756315493e-09	-4.6713056e-09	1.4559913e-08	0.88724536	750000	0.0030999999
1.970000499009076e-09	-1.9382885e-08	-5.8239653e-09	0.8882592	750000	0.0030999999
1.9750159160279437e-09	4.7319717e-09	-2.3295861e-08	0.88886875	750000	0.0030999999
1.9800057461660025e-09	2.0323212e-08	2.9119827e-09	0.88894594	750000	0.0031
1.985021139664244e-09	-7.3102897e-09	2.135454e-08	0.8885619	750000	0.0031
1.990010890637654e-09	-1.9071969e-08	-9.706609e-09	0.88779485	750000	0.0030999999
1.9950007235485797e-09	5.550967e-09	-1.1647931e-08	0.88665116	750000	0.0031
2.0000190573114114e-09	1.501491e-08	7.765287e-09	0.8852578	750000	0.0029999998
2.005004560160757e-09	-1.0434604e-08	9.706609e-09	0.8865334	750000	0.0029999998
2.0100240393787665e-09	-1.2133261e-08	-4.367974e-09	0.88881844	750000	0.0029999998
2.01501603090981e-09	7.765287e-09	-1.1647931e-08	0.89186186	750000	0.0029999998
2.0200047439177235e-09	6.3092958e-09	7.765287e-09	0.8976186	750000	0.0029999998
2.0250218278264495e-09	-4.7319717e-09	-9.706609e-10	0.9046371	750000	0.0029999998
2.0300108941261123e-09	8.493283e-10	-4.8533044e-09	0.9108639	750000	0.0029999998
2.0350003171618518e-09	3.579312e-09	4.367974e-09	0.9152618	750000	0.0029999998
2.040015473112516e-09	-4.4893067e-09	-2.9119827e-09	0.9202033	750000	0.0029999998
2.0450056997084507e-09	4.5044732e-09	-1.9413218e-09	0.92260915	750000	0.0029999998
2.050021017924317e-09	6.1803798e-09	2.9119827e-09	0.92110693	750000	0.0029999998
2.055010555981829e-09	-8.553949e-09	7.4012894e-09	0.91884804	750000	0.0029999998
2.060000576313602e-09	-1.0373938e-08	-6.5519608e-09	0.91522205	750000	0.0029999998
2.065016737383133e-09	1.11626e-08	-1.6501234e-08	0.9093822	750000	0.0029999998
2.070006145423208e-09	1.3589252e-08	1.5530574e-08	0.90267706	750000	0.0029999998
2.0750219689568517e-09	-1.39077505e-08	1.1647931e-08	0.8976997	750000	0.0029999998
2.0800121861920684e-09	-1.3043255e-08	-1.1647931e-08	0.8935195	750000	0.0029999998
2.085001794076611e-09	9.077196e-09	-1.26185915e-08	0.8895314	750000	0.0029999998
2.0900172109774243e-09	9.403277e-09	4.367974e-09	0.88850576	750000	0.0029999998
2.0950068850402372e-09	-2.6010678e-09	1.1647931e-08	0.890189	750000	0.0029999998
2.100023109678256e-09	-1.2557925e-08	-4.367974e-09	0.8925724	750000	0.0029999998
2.1050126969370755e-09	8.6449486e-10	-1.6501234e-08	0.89625245	750000	0.0029999998
2.110003081811102e-09	1.1496264e-08	2.9119827e-09	0.90216184	750000	0.0029999998
2.1150193267340222e-09	2.9119827e-09	2.9119827e-09	0.90805745	750000	0.0029999998
2.120008511850202e-09	-1.4559913e-09	7.2799566e-09	0.91248643	750000	0.0029999998
2.1250239115330746e-09	-8.675282e-09	0	0.91672295	750000	0.0029999998
2.1300135919837886e-09	-2.1233207e-10	-1.26185915e-08	0.9198939	750000	0.003
2.1350031227237664e-09	6.506461e-09	1.4559913e-09	0.9202657	750000	0.0029999998
2.1400186729834865e-09	1.7062398e-09	5.8239653e-09	0.91829085	750000	0.0029999998
2.1450078990602417e-09	-7.3102897e-09	8.735948e-09	0.9158458	750000	0.0029999998
2.1500242956348286e-09	-8.311284e-09	-1.1647931e-08	0.91170156	750000	0.0029999998
2.1550144992002443e-09	1.2709591e-08	-4.8533044e-09	0.9058565	750000	0.0029999998
2.160004110543755e-09	5.00497e-09	1.4559913e-08	0.9009419	750000	0.0029999998
2.1650203482674257e-09	-1.5121076e-08	1.9413218e-09	0.8969012	750000	0.0029999998
2.170009825252263e-09	-7.613622e-09	-1.3589252e-08	0.89334923	750000	0.0029999998
2.1750249560532863e-09	1.4741913e-08	-1.1647931e-08	0.8910687	750000	0.0029999998
2.1800146171744438e-09	8.250617e-09	1.3589252e-08	0.89150244	750000	0.0029999998
2.185004750192524e-09	-8.978613e-09	7.765287e-09	0.89351624	750000	0.0029999998
2.1900207453162144e-09	-3.0939815e-09	-9.706609e-09	0.8959472	750000	0.0029999998
2.195010531420747e-09	8.250617e-09	-3.6399783e-10	0.9003842	750000	0.0029999998
2.2000012610753886e-09	-3.8219774e-09	4.367974e-09	0.9056791	750000	0.0029999998
2.205016795443412e-09	-7.8866197e-10	-9.706609e-09	0.91010153	750000	0.0029999998
2.21000602677556e-09	1.182993e-08	2.9119827e-09	0.91388273	750000	0.0029999998
2.2150214009739023e-09	8.493283e-10	1.1526598e-08	0.9171019	750000	0.0029999998
2.2200109450085775e-09	-1.3862251e-08	-1.9413218e-09	0.91870505	750000	0.0029999998
2.2250006133528617e-09	6.2334626e-09	-1.3589252e-08	0.9177343	750000	0.0029999998
2.2300160030864153e-09	1.4324831e-08	6.794626e-09	0.91576284	750000	0.0029999998
2.2350061307653977e-09	-1.0373938e-08	1.67439e-08	0.9129577	750000	0.0029999998
2.2400222612883388e-09	-8.766281e-09	-1.067727e-08	0.9083746	750000	0.0029999998
2.2450120001610476e-09	6.68846e-09	-6.3092958e-09	0.90360534	750000	0.0029999998
2.250001919748832e-09	5.638175e-09	9.706609e-09	0.89975286	750000	0.0029999998
2.2550175328231677e-09	-1.4408247e-08	0	0.89647645	750000	0.0029999998
2.2600068761559214e-09	1.9261552e-09	-1.26185915e-08	0.8938372	750000	0.0029999998
2.265022254952847e-09	1.2391093e-08	1.9413218e-09	0.8931155	750000	0.0029999998
2.270012313299331e-09	-7.947286e-09	4.8533044e-09	0.8943832	750000	0.0029999998
2.275002445483355e-09	-2.972649e-09	-6.794626e-09	0.8963021	750000	0.0029999998
2.2800181798093004e-09	7.2799566e-09	-9.706609e-09	0.8993482	750000	0.0029999998
2.2850082348436172e-09	5.0959694e-09	1.1647931e-08	0.90376	750000	0.0029999998
2.2900240910868096e-09	-3.9433097e-09	3.8826435e-09	0.9080755	750000	0.0029999998
2.2950136158422886e-09	-1.0009941e-09	-4.8533044e-09	0.9115385	750000	0.003
2.3000030602309487e-09	2.4266522e-09	2.4266522e-09	0.9146083	750000	0.0029999998
2.305018687063408e-09	-7.947286e-09	-1.9413218e-09	0.91674846	750000	0.0029999998
2.3100082129386824e-09	2.654151e-09	-8.735948e-09	0.9168692	750000	0.003
2.3150236791984583e-09	1.333142e-08	1.9413218e-09	0.91547376	750000	0.0029999998
2.3200137139401e-09	-4.686472e-09	1.6015905e-08	0.9133593	750000	0.0029999998
2.3250037874381466e-09	-1.6561902e-08	-4.8533044e-09	0.91012233	750000	0.0029999998
2.3300195339957112e-09	1.3346587e-09	-2.135454e-08	0.90585065	750000	0.0029999998
2.3350092102799185e-09	2.551018e-08	2.4266522e-09	0.9020877	750000	0.0029999998
2.340024932225382e-09	2.4114857e-09	2.7178505e-08	0.89906436	750000	0.0029999998
2.3450146233708882e-09	-2.8209833e-08	-1.9413218e-09	0.8964074	750000	0.0029999998
2.3500041901564383e-09	-1.2133261e-09	-1.8442556e-08	0.8949926	750000	0.0029999998
2.35501988006792e-09	1.7502229e-08	-4.8533044e-09	0.89534813	750000	0.0029999998
2.36000987092498e-09	4.4893067e-09	1.3589252e-08	0.89684135	750000	0.0029999998
2.365000034165321e-09	-8.296118e-09	2.9119827e-09	0.8990125	750000	0.0029999998
2.370015609604703e-09	-3.7006447e-09	-4.974637e-09	0.90234196	750000	0.0029999998
2.375005674389971e-09	-3.0333152e-09	-3.8826435e-09	0.90630335	750000	0.0029999998
2.3800213176613403e-09	3.1546479e-09	-9.706609e-09	0.90962905	750000	0.0029999998
2.3850107572401e-09	9.699026e-09	1.9413218e-09	0.91245306	750000	0.0029999998
2.3900005496657694e-09	-1.0919935e-09	1.067727e-08	0.9147595	750000	0.0029999998
2.395016037866406e-09	-1.7107897e-08	-9.706609e-10	0.9156646	750000	0.0029999998
2.400005718430801e-09	-6.6732936e-10	-1.7350564e-08	0.9150017	750000	0.0029999998
2.405021186266572e-09	1.95573e-08	0	0.91337645	750000	0.0029999998
2.4100112818117348e-09	-3.9433098e-10	2.135454e-08	0.9110449	750000	0.003
2.4150014088304252e-09	-2.188537e-08	-9.706609e-10	0.9076623	750000	0.0029999998
2.420016893062819e-09	-3.1698144e-09	-2.3295861e-08	0.90406257	750000	0.0029999998
2.4250067808368076e-09	2.252995e-08	-9.706609e-10	0.9011789	750000	0.0029999998
2.430022403025491e-09	1.8048226e-09	1.9413218e-08	0.89868873	750000	0.0029999998
2.4350121027329536e-09	-2.21887e-08	1.9413218e-09	0.8969041	750000	0.0029999998
2.440001916245552e-09	1.0464938e-09	-1.8442556e-08	0.8965177	750000	0.0029999998
2.4450175993330264e-09	1.4559913e-08	-9.706609e-10	0.89744675	750000	0.0029999998
2.450007608658204e-09	-1.1526597e-09	6.794626e-09	0.8990876	750000	0.0029999998
2.4550232120401964e-09	-2.8513163e-09	9.706609e-10	0.90152484	750000	0.0029999998
2.4600131802491954e-09	-4.838138e-09	9.706609e-10	0.9048203	750000	0.0029999998
2.4650032396809374e-09	-4.216308e-09	-2.9119827e-09	0.9080214	750000	0.0029999998
2.470018637068139e-09	2.6693174e-09	-6.794626e-09	0.9106567	750000	0.0029999998
2.4750082020633317e-09	1.2588258e-08	-1.4559913e-09	0.9128941	750000	0.0029999998
2.480023676251732e-09	1.789656e-09	1.7471896e-08	0.91429085	750000	0.0029999998
2.485013556885524e-09	-2.25527e-08	9.706609e-10	0.9142828	750000	0.0029999998
2.49000321368761e-09	2.1612372e-09	-2.3295861e-08	0.9131949	750000	0.0029999998
2.495018807326652e-09	2.3879775e-08	-3.6399783e-10	0.91143894	750000	0.0029999998
2.5000088731223687e-09	2.7299837e-10	2.3174529e-08	0.908883	750000	0.0029999998
2.505024392795696e-09	-2.1532747e-08	7.765287e-09	0.9057434	750000	0.0029999998
2.51001437476714e-09	-9.638359e-09	-2.183987e-08	0.9029104	750000	0.0029999998
2.5150042725047036e-09	2.0103297e-08	-1.067727e-08	0.90062296	750000	0.0029999998
2.520019749894426e-09	9.547359e-09	1.8442556e-08	0.8987378	750000	0.0029999998
2.5250093912543997e-09	-1.15038485e-08	6.794626e-09	0.8978167	750000	0.0029999998
2.530024980557008e-09	-4.0949755e-09	-6.794626e-09	0.8981718	750000	0.0029999998
2.5350150592262277e-09	5.4599675e-10	-2.3053195e-09	0.89934844	750000	0.0029999998
2.5400049531628204e-09	-1.0313271e-09	-7.765287e-09	0.90115964	750000	0.0029999998
2.5450205637729697e-09	8.735948e-09	-5.8239653e-09	0.9037344	750000	0.0029999998
2.550010528763862e-09	9.888608e-09	1.1647931e-08	0.90663826	750000	0.0029999998
2.5550004536449798e-09	-1.4377914e-08	1.1647931e-08	0.9091667	750000	0.0029999998
2.56001574628812e-09	-1.1268766e-08	-2.0383878e-08	0.9112531	750000	0.0029999998
2.5650054614702296e-09	1.9322218e-08	-6.794626e-09	0.91285336	750000	0.0029999998
2.570020938637702e-09	4.4134736e-09	2.135454e-08	0.9133942	750000	0.0029999998
2.5750107046441017e-09	-2.0793376e-08	2.9119827e-09	0.9128161	750000	0.0029999998
2.58000050409458e-09	-3.503479e-09	-2.0383878e-08	0.9115357	750000	0.0029999998
2.5850161270778457e-09	2.1324206e-08	-5.338635e-09	0.9096064	750000	0.0029999998
2.5900061224492432e-09	6.187963e-09	2.4266521e-08	0.90706563	750000	0.0029999998
2.5950216292611946e-09	-1.8184725e-08	1.9413218e-09	0.90440065	750000	0.0029999998
2.6000115934459052e-09	-3.1698144e-09	-1.31039215e-08	0.9021991	750000	0.0029999998
2.6050014938451965e-09	1.1056434e-08	2.4266522e-09	0.9004005	750000	0.0029999998
2.610016802871059e-09	-2.0019881e-09	1.9413218e-09	0.899169	750000	0.0029999998
2.615006701598226e-09	-8.0382856e-10	-9.706609e-10	0.8989977	750000	0.0029999998
2.6200223716859205e-09	-6.0666305e-10	5.8239653e-09	0.8997475	750000	0.0029999998
2.6250123323657598e-09	-8.250617e-09	-9.706609e-10	0.9010906	750000	0.0029999998
2.6300023232565685e-09	-3.9129766e-09	-1.26185915e-08	0.9030422	750000	0.0029999998
2.6350179330142486e-09	1.741123e-08	-4.8533044e-09	0.90550554	750000	0.0029999998
2.6400078181136805e-09	7.4316224e-09	2.23252e-08	0.9078991	750000	0.0029999998
2.6450232518802872e-09	-2.2385867e-08	3.8826435e-09	0.90988183	750000	0.0029999998
2.6500129991048096e-09	-6.0666303e-09	-2.3295861e-08	0.9114756	750000	0.0029999998
2.6550028933901632e-09	2.0186713e-08	-7.765287e-09	0.91238916	750000	0.0029999998
2.6600182866723836e-09	5.2324687e-09	1.6015905e-08	0.9122912	750000	0.0029999998
2.66500810963261e-09	-1.4984577e-08	7.765287e-09	0.91141146	750000	0.0029999998
2.6700236623226462e-09	-6.445795e-09	-7.765287e-09	0.90997696	750000	0.0029999998
2.675013686316623e-09	2.578318e-09	-6.6732935e-09	0.90797937	750000	0.003
2.680003566154579e-09	4.5423896e-09	-1.9413218e-09	0.9056589	750000	0.0029999998
2.6850190643335718e-09	5.0732196e-09	0	0.90352815	750000	0.0029999998
2.690008987693465e-09	2.608651e-09	1.067727e-08	0.9018088	750000	0.0029999998
2.6950244682203804e-09	-1.856389e-08	5.8239653e-09	0.900491	750000	0.0029999998
2.7000142328046705e-09	-6.73396e-09	-1.9413218e-08	0.8999123	750000	0.0029999998
2.705004222977604e-09	2.0656877e-08	-7.522622e-09	0.9002424	750000	0.0029999998
2.7100198230541946e-09	8.296118e-09	2.0383878e-08	0.9012106	750000	0.0029999998
2.7150098149115316e-09	-2.4782185e-08	9.706609e-09	0.9026779	750000	0.0029999998
2.7200253975838136e-09	-7.765287e-09	-2.9119827e-08	0.90466636	750000	0.0029999998
2.725015340842716e-09	2.7739668e-08	-7.2799566e-09	0.90681726	750000	0.0029999998
2.7300051719318625e-09	4.185975e-09	2.6207843e-08	0.90871423	750000	0.0029999998
2.7350205738664277e-09	-2.3174529e-08	7.765287e-09	0.9102545	750000	0.0029999998
2.740010315493488e-09	-8.94828e-09	-2.135454e-08	0.9113361	750000	0.0029999998
2.7450002809617608e-09	1.44234145e-08	-7.765287e-09	0.9116491	750000	0.0029999998
2.750015685128336e-09	5.596467e-09	9.706609e-09	0.9111442	750000	0.0029999998
2.7550055222649296e-09	-3.4579795e-09	6.794626e-09	0.91010064	750000	0.0029999998
2.7600211236207645e-09	-7.81837e-09	3.8826435e-09	0.90856457	750000	0.0029999998
2.765011096807753e-09	-6.8552923e-09	-7.765287e-09	0.90662926	750000	0.0029999998
2.770001015940807e-09	4.716805e-09	-1.26185915e-08	0.90466946	750000	0.0029999998
2.775016547438236e-09	1.6379902e-08	2.9119827e-09	0.9029989	750000	0.0029999998
2.7800064232645357e-09	3.184981e-09	2.135454e-08	0.9016946	750000	0.0029999998
2.7850217812483397e-09	-2.290153e-08	8.735948e-09	0.900878	750000	0.0029999998
2.7900116570845704e-09	-9.418444e-09	-2.6207843e-08	0.90082276	750000	0.0029999998
2.795001615721288e-09	2.3295861e-08	-1.0434604e-08	0.9014502	750000	0.0029999998
2.8000171993357698e-09	1.21029275e-08	2.3295861e-08	0.90254635	750000	0.0029999998
2.805007198042603e-09	-1.789656e-08	1.1647931e-08	0.90408885	750000	0.0029999998
2.8100226900638393e-09	-1.3043255e-08	-1.5530574e-08	0.9059436	750000	0.0029999998
2.8150125865577073e-09	1.15872645e-08	-1.3589252e-08	0.9077196	750000	0.0029999998
2.820002378791828e-09	1.1010934e-08	6.794626e-09	0.90919775	750000	0.0029999998
2.8250178145707095e-09	-3.1546479e-09	3.8826435e-09	0.91032875	750000	0.003
2.8300076237893524e-09	-6.946292e-09	9.706609e-10	0.91091365	750000	0.0029999998
2.8350231139037503e-09	-5.4599676e-09	-5.8239653e-09	0.91077113	750000	0.0029999998
2.8400129707584653e-09	7.628788e-09	-9.706609e-09	0.91004384	750000	0.0029999998
2.8450028764141195e-09	1.2375926e-08	1.067727e-08	0.90889406	750000	0.0029999998
2.850018451454503e-09	-8.068619e-09	1.3589252e-08	0.90733653	750000	0.0029999998
2.855008351373278e-09	-1.6084154e-08	-7.765287e-09	0.90560246	750000	0.0029999998
2.860023830397217e-09	4.307308e-09	-1.7957227e-08	0.904015	750000	0.0029999998
2.8650137009069305e-09	2.0816126e-08	9.706609e-10	0.9027379	750000	0.0029999998
2.870003576900585e-09	-1.0616603e-09	1.4559913e-08	0.9018263	750000	0.0029999998